+ 0.2 0 1 tcp 40 ------- 1 0.0 2.0 0 0
- 0.2 0 1 tcp 40 ------- 1 0.0 2.0 0 0
r 0.21016 0 1 tcp 40 ------- 1 0.0 2.0 0 0
+ 0.21016 1 2 tcp 40 ------- 1 0.0 2.0 0 0
- 0.21016 1 2 tcp 40 ------- 1 0.0 2.0 0 0
r 0.22048 1 2 tcp 40 ------- 1 0.0 2.0 0 0
+ 0.22048 2 1 ack 40 ------- 1 2.0 0.0 0 1
- 0.22048 2 1 ack 40 ------- 1 2.0 0.0 0 1
r 0.2308 2 1 ack 40 ------- 1 2.0 0.0 0 1
+ 0.2308 1 0 ack 40 ------- 1 2.0 0.0 0 1
- 0.2308 1 0 ack 40 ------- 1 2.0 0.0 0 1
r 0.24096 1 0 ack 40 ------- 1 2.0 0.0 0 1
+ 0.24096 0 1 tcp 1040 ------- 1 0.0 2.0 1 2
- 0.24096 0 1 tcp 1040 ------- 1 0.0 2.0 1 2
+ 0.24096 0 1 tcp 1040 ------- 1 0.0 2.0 2 3
- 0.24512 0 1 tcp 1040 ------- 1 0.0 2.0 2 3
r 0.25512 0 1 tcp 1040 ------- 1 0.0 2.0 1 2
+ 0.25512 1 2 tcp 1040 ------- 1 0.0 2.0 1 2
- 0.25512 1 2 tcp 1040 ------- 1 0.0 2.0 1 2
r 0.25928 0 1 tcp 1040 ------- 1 0.0 2.0 2 3
+ 0.25928 1 2 tcp 1040 ------- 1 0.0 2.0 2 3
- 0.26344 1 2 tcp 1040 ------- 1 0.0 2.0 2 3
r 0.27344 1 2 tcp 1040 ------- 1 0.0 2.0 1 2
+ 0.27344 2 1 ack 40 ------- 1 2.0 0.0 1 4
- 0.27344 2 1 ack 40 ------- 1 2.0 0.0 1 4
r 0.28176 1 2 tcp 1040 ------- 1 0.0 2.0 2 3
+ 0.28176 2 1 ack 40 ------- 1 2.0 0.0 2 5
- 0.28176 2 1 ack 40 ------- 1 2.0 0.0 2 5
r 0.28376 2 1 ack 40 ------- 1 2.0 0.0 1 4
+ 0.28376 1 0 ack 40 ------- 1 2.0 0.0 1 4
- 0.28376 1 0 ack 40 ------- 1 2.0 0.0 1 4
r 0.29208 2 1 ack 40 ------- 1 2.0 0.0 2 5
+ 0.29208 1 0 ack 40 ------- 1 2.0 0.0 2 5
- 0.29208 1 0 ack 40 ------- 1 2.0 0.0 2 5
r 0.29392 1 0 ack 40 ------- 1 2.0 0.0 1 4
+ 0.29392 0 1 tcp 1040 ------- 1 0.0 2.0 3 6
- 0.29392 0 1 tcp 1040 ------- 1 0.0 2.0 3 6
+ 0.29392 0 1 tcp 1040 ------- 1 0.0 2.0 4 7
- 0.29808 0 1 tcp 1040 ------- 1 0.0 2.0 4 7
r 0.30224 1 0 ack 40 ------- 1 2.0 0.0 2 5
+ 0.30224 0 1 tcp 1040 ------- 1 0.0 2.0 5 8
+ 0.30224 0 1 tcp 1040 ------- 1 0.0 2.0 6 9
- 0.30224 0 1 tcp 1040 ------- 1 0.0 2.0 5 8
- 0.3064 0 1 tcp 1040 ------- 1 0.0 2.0 6 9
r 0.30808 0 1 tcp 1040 ------- 1 0.0 2.0 3 6
+ 0.30808 1 2 tcp 1040 ------- 1 0.0 2.0 3 6
- 0.30808 1 2 tcp 1040 ------- 1 0.0 2.0 3 6
r 0.31224 0 1 tcp 1040 ------- 1 0.0 2.0 4 7
+ 0.31224 1 2 tcp 1040 ------- 1 0.0 2.0 4 7
r 0.3164 0 1 tcp 1040 ------- 1 0.0 2.0 5 8
+ 0.3164 1 2 tcp 1040 ------- 1 0.0 2.0 5 8
- 0.3164 1 2 tcp 1040 ------- 1 0.0 2.0 4 7
r 0.32056 0 1 tcp 1040 ------- 1 0.0 2.0 6 9
+ 0.32056 1 2 tcp 1040 ------- 1 0.0 2.0 6 9
- 0.32472 1 2 tcp 1040 ------- 1 0.0 2.0 5 8
r 0.3264 1 2 tcp 1040 ------- 1 0.0 2.0 3 6
+ 0.3264 2 1 ack 40 ------- 1 2.0 0.0 3 10
- 0.3264 2 1 ack 40 ------- 1 2.0 0.0 3 10
- 0.33304 1 2 tcp 1040 ------- 1 0.0 2.0 6 9
r 0.33472 1 2 tcp 1040 ------- 1 0.0 2.0 4 7
+ 0.33472 2 1 ack 40 ------- 1 2.0 0.0 4 11
- 0.33472 2 1 ack 40 ------- 1 2.0 0.0 4 11
r 0.33672 2 1 ack 40 ------- 1 2.0 0.0 3 10
+ 0.33672 1 0 ack 40 ------- 1 2.0 0.0 3 10
- 0.33672 1 0 ack 40 ------- 1 2.0 0.0 3 10
r 0.34304 1 2 tcp 1040 ------- 1 0.0 2.0 5 8
+ 0.34304 2 1 ack 40 ------- 1 2.0 0.0 5 12
- 0.34304 2 1 ack 40 ------- 1 2.0 0.0 5 12
r 0.34504 2 1 ack 40 ------- 1 2.0 0.0 4 11
+ 0.34504 1 0 ack 40 ------- 1 2.0 0.0 4 11
- 0.34504 1 0 ack 40 ------- 1 2.0 0.0 4 11
r 0.34688 1 0 ack 40 ------- 1 2.0 0.0 3 10
+ 0.34688 0 1 tcp 1040 ------- 1 0.0 2.0 7 13
- 0.34688 0 1 tcp 1040 ------- 1 0.0 2.0 7 13
+ 0.34688 0 1 tcp 1040 ------- 1 0.0 2.0 8 14
- 0.35104 0 1 tcp 1040 ------- 1 0.0 2.0 8 14
r 0.35136 1 2 tcp 1040 ------- 1 0.0 2.0 6 9
+ 0.35136 2 1 ack 40 ------- 1 2.0 0.0 6 15
- 0.35136 2 1 ack 40 ------- 1 2.0 0.0 6 15
r 0.35336 2 1 ack 40 ------- 1 2.0 0.0 5 12
+ 0.35336 1 0 ack 40 ------- 1 2.0 0.0 5 12
- 0.35336 1 0 ack 40 ------- 1 2.0 0.0 5 12
r 0.3552 1 0 ack 40 ------- 1 2.0 0.0 4 11
+ 0.3552 0 1 tcp 1040 ------- 1 0.0 2.0 9 16
+ 0.3552 0 1 tcp 1040 ------- 1 0.0 2.0 10 17
- 0.3552 0 1 tcp 1040 ------- 1 0.0 2.0 9 16
- 0.35936 0 1 tcp 1040 ------- 1 0.0 2.0 10 17
r 0.36104 0 1 tcp 1040 ------- 1 0.0 2.0 7 13
+ 0.36104 1 2 tcp 1040 ------- 1 0.0 2.0 7 13
- 0.36104 1 2 tcp 1040 ------- 1 0.0 2.0 7 13
r 0.36168 2 1 ack 40 ------- 1 2.0 0.0 6 15
+ 0.36168 1 0 ack 40 ------- 1 2.0 0.0 6 15
- 0.36168 1 0 ack 40 ------- 1 2.0 0.0 6 15
r 0.36352 1 0 ack 40 ------- 1 2.0 0.0 5 12
+ 0.36352 0 1 tcp 1040 ------- 1 0.0 2.0 11 18
+ 0.36352 0 1 tcp 1040 ------- 1 0.0 2.0 12 19
- 0.36352 0 1 tcp 1040 ------- 1 0.0 2.0 11 18
r 0.3652 0 1 tcp 1040 ------- 1 0.0 2.0 8 14
+ 0.3652 1 2 tcp 1040 ------- 1 0.0 2.0 8 14
- 0.36768 0 1 tcp 1040 ------- 1 0.0 2.0 12 19
r 0.36936 0 1 tcp 1040 ------- 1 0.0 2.0 9 16
+ 0.36936 1 2 tcp 1040 ------- 1 0.0 2.0 9 16
- 0.36936 1 2 tcp 1040 ------- 1 0.0 2.0 8 14
r 0.37184 1 0 ack 40 ------- 1 2.0 0.0 6 15
+ 0.37184 0 1 tcp 1040 ------- 1 0.0 2.0 13 20
+ 0.37184 0 1 tcp 1040 ------- 1 0.0 2.0 14 21
- 0.37184 0 1 tcp 1040 ------- 1 0.0 2.0 13 20
r 0.37352 0 1 tcp 1040 ------- 1 0.0 2.0 10 17
+ 0.37352 1 2 tcp 1040 ------- 1 0.0 2.0 10 17
- 0.376 0 1 tcp 1040 ------- 1 0.0 2.0 14 21
r 0.37768 0 1 tcp 1040 ------- 1 0.0 2.0 11 18
+ 0.37768 1 2 tcp 1040 ------- 1 0.0 2.0 11 18
- 0.37768 1 2 tcp 1040 ------- 1 0.0 2.0 9 16
r 0.37936 1 2 tcp 1040 ------- 1 0.0 2.0 7 13
+ 0.37936 2 1 ack 40 ------- 1 2.0 0.0 7 22
- 0.37936 2 1 ack 40 ------- 1 2.0 0.0 7 22
r 0.38184 0 1 tcp 1040 ------- 1 0.0 2.0 12 19
+ 0.38184 1 2 tcp 1040 ------- 1 0.0 2.0 12 19
r 0.386 0 1 tcp 1040 ------- 1 0.0 2.0 13 20
+ 0.386 1 2 tcp 1040 ------- 1 0.0 2.0 13 20
- 0.386 1 2 tcp 1040 ------- 1 0.0 2.0 10 17
r 0.38768 1 2 tcp 1040 ------- 1 0.0 2.0 8 14
+ 0.38768 2 1 ack 40 ------- 1 2.0 0.0 8 23
- 0.38768 2 1 ack 40 ------- 1 2.0 0.0 8 23
r 0.38968 2 1 ack 40 ------- 1 2.0 0.0 7 22
+ 0.38968 1 0 ack 40 ------- 1 2.0 0.0 7 22
- 0.38968 1 0 ack 40 ------- 1 2.0 0.0 7 22
r 0.39016 0 1 tcp 1040 ------- 1 0.0 2.0 14 21
+ 0.39016 1 2 tcp 1040 ------- 1 0.0 2.0 14 21
- 0.39432 1 2 tcp 1040 ------- 1 0.0 2.0 11 18
r 0.396 1 2 tcp 1040 ------- 1 0.0 2.0 9 16
+ 0.396 2 1 ack 40 ------- 1 2.0 0.0 9 24
- 0.396 2 1 ack 40 ------- 1 2.0 0.0 9 24
r 0.398 2 1 ack 40 ------- 1 2.0 0.0 8 23
+ 0.398 1 0 ack 40 ------- 1 2.0 0.0 8 23
- 0.398 1 0 ack 40 ------- 1 2.0 0.0 8 23
r 0.39984 1 0 ack 40 ------- 1 2.0 0.0 7 22
+ 0.39984 0 1 tcp 1040 ------- 1 0.0 2.0 15 25
- 0.39984 0 1 tcp 1040 ------- 1 0.0 2.0 15 25
+ 0.39984 0 1 tcp 1040 ------- 1 0.0 2.0 16 26
- 0.40264 1 2 tcp 1040 ------- 1 0.0 2.0 12 19
- 0.404 0 1 tcp 1040 ------- 1 0.0 2.0 16 26
r 0.40432 1 2 tcp 1040 ------- 1 0.0 2.0 10 17
+ 0.40432 2 1 ack 40 ------- 1 2.0 0.0 10 27
- 0.40432 2 1 ack 40 ------- 1 2.0 0.0 10 27
r 0.40632 2 1 ack 40 ------- 1 2.0 0.0 9 24
+ 0.40632 1 0 ack 40 ------- 1 2.0 0.0 9 24
- 0.40632 1 0 ack 40 ------- 1 2.0 0.0 9 24
r 0.40816 1 0 ack 40 ------- 1 2.0 0.0 8 23
+ 0.40816 0 1 tcp 1040 ------- 1 0.0 2.0 17 28
+ 0.40816 0 1 tcp 1040 ------- 1 0.0 2.0 18 29
- 0.40816 0 1 tcp 1040 ------- 1 0.0 2.0 17 28
- 0.41096 1 2 tcp 1040 ------- 1 0.0 2.0 13 20
- 0.41232 0 1 tcp 1040 ------- 1 0.0 2.0 18 29
r 0.41264 1 2 tcp 1040 ------- 1 0.0 2.0 11 18
+ 0.41264 2 1 ack 40 ------- 1 2.0 0.0 11 30
- 0.41264 2 1 ack 40 ------- 1 2.0 0.0 11 30
r 0.414 0 1 tcp 1040 ------- 1 0.0 2.0 15 25
+ 0.414 1 2 tcp 1040 ------- 1 0.0 2.0 15 25
r 0.41464 2 1 ack 40 ------- 1 2.0 0.0 10 27
+ 0.41464 1 0 ack 40 ------- 1 2.0 0.0 10 27
- 0.41464 1 0 ack 40 ------- 1 2.0 0.0 10 27
r 0.41648 1 0 ack 40 ------- 1 2.0 0.0 9 24
+ 0.41648 0 1 tcp 1040 ------- 1 0.0 2.0 19 31
+ 0.41648 0 1 tcp 1040 ------- 1 0.0 2.0 20 32
- 0.41648 0 1 tcp 1040 ------- 1 0.0 2.0 19 31
r 0.41816 0 1 tcp 1040 ------- 1 0.0 2.0 16 26
+ 0.41816 1 2 tcp 1040 ------- 1 0.0 2.0 16 26
- 0.41928 1 2 tcp 1040 ------- 1 0.0 2.0 14 21
- 0.42064 0 1 tcp 1040 ------- 1 0.0 2.0 20 32
r 0.42096 1 2 tcp 1040 ------- 1 0.0 2.0 12 19
+ 0.42096 2 1 ack 40 ------- 1 2.0 0.0 12 33
- 0.42096 2 1 ack 40 ------- 1 2.0 0.0 12 33
r 0.42232 0 1 tcp 1040 ------- 1 0.0 2.0 17 28
+ 0.42232 1 2 tcp 1040 ------- 1 0.0 2.0 17 28
r 0.42296 2 1 ack 40 ------- 1 2.0 0.0 11 30
+ 0.42296 1 0 ack 40 ------- 1 2.0 0.0 11 30
- 0.42296 1 0 ack 40 ------- 1 2.0 0.0 11 30
r 0.4248 1 0 ack 40 ------- 1 2.0 0.0 10 27
+ 0.4248 0 1 tcp 1040 ------- 1 0.0 2.0 21 34
+ 0.4248 0 1 tcp 1040 ------- 1 0.0 2.0 22 35
- 0.4248 0 1 tcp 1040 ------- 1 0.0 2.0 21 34
r 0.42648 0 1 tcp 1040 ------- 1 0.0 2.0 18 29
+ 0.42648 1 2 tcp 1040 ------- 1 0.0 2.0 18 29
- 0.4276 1 2 tcp 1040 ------- 1 0.0 2.0 15 25
- 0.42896 0 1 tcp 1040 ------- 1 0.0 2.0 22 35
r 0.42928 1 2 tcp 1040 ------- 1 0.0 2.0 13 20
+ 0.42928 2 1 ack 40 ------- 1 2.0 0.0 13 36
- 0.42928 2 1 ack 40 ------- 1 2.0 0.0 13 36
r 0.43064 0 1 tcp 1040 ------- 1 0.0 2.0 19 31
+ 0.43064 1 2 tcp 1040 ------- 1 0.0 2.0 19 31
r 0.43128 2 1 ack 40 ------- 1 2.0 0.0 12 33
+ 0.43128 1 0 ack 40 ------- 1 2.0 0.0 12 33
- 0.43128 1 0 ack 40 ------- 1 2.0 0.0 12 33
r 0.43312 1 0 ack 40 ------- 1 2.0 0.0 11 30
+ 0.43312 0 1 tcp 1040 ------- 1 0.0 2.0 23 37
+ 0.43312 0 1 tcp 1040 ------- 1 0.0 2.0 24 38
- 0.43312 0 1 tcp 1040 ------- 1 0.0 2.0 23 37
r 0.4348 0 1 tcp 1040 ------- 1 0.0 2.0 20 32
+ 0.4348 1 2 tcp 1040 ------- 1 0.0 2.0 20 32
d 0.4348 1 2 tcp 1040 ------- 1 0.0 2.0 20 32
- 0.43592 1 2 tcp 1040 ------- 1 0.0 2.0 16 26
- 0.43728 0 1 tcp 1040 ------- 1 0.0 2.0 24 38
r 0.4376 1 2 tcp 1040 ------- 1 0.0 2.0 14 21
+ 0.4376 2 1 ack 40 ------- 1 2.0 0.0 14 39
- 0.4376 2 1 ack 40 ------- 1 2.0 0.0 14 39
r 0.43896 0 1 tcp 1040 ------- 1 0.0 2.0 21 34
+ 0.43896 1 2 tcp 1040 ------- 1 0.0 2.0 21 34
r 0.4396 2 1 ack 40 ------- 1 2.0 0.0 13 36
+ 0.4396 1 0 ack 40 ------- 1 2.0 0.0 13 36
- 0.4396 1 0 ack 40 ------- 1 2.0 0.0 13 36
r 0.44144 1 0 ack 40 ------- 1 2.0 0.0 12 33
+ 0.44144 0 1 tcp 1040 ------- 1 0.0 2.0 25 40
+ 0.44144 0 1 tcp 1040 ------- 1 0.0 2.0 26 41
- 0.44144 0 1 tcp 1040 ------- 1 0.0 2.0 25 40
r 0.44312 0 1 tcp 1040 ------- 1 0.0 2.0 22 35
+ 0.44312 1 2 tcp 1040 ------- 1 0.0 2.0 22 35
d 0.44312 1 2 tcp 1040 ------- 1 0.0 2.0 22 35
- 0.44424 1 2 tcp 1040 ------- 1 0.0 2.0 17 28
- 0.4456 0 1 tcp 1040 ------- 1 0.0 2.0 26 41
r 0.44592 1 2 tcp 1040 ------- 1 0.0 2.0 15 25
+ 0.44592 2 1 ack 40 ------- 1 2.0 0.0 15 42
- 0.44592 2 1 ack 40 ------- 1 2.0 0.0 15 42
r 0.44728 0 1 tcp 1040 ------- 1 0.0 2.0 23 37
+ 0.44728 1 2 tcp 1040 ------- 1 0.0 2.0 23 37
r 0.44792 2 1 ack 40 ------- 1 2.0 0.0 14 39
+ 0.44792 1 0 ack 40 ------- 1 2.0 0.0 14 39
- 0.44792 1 0 ack 40 ------- 1 2.0 0.0 14 39
r 0.44976 1 0 ack 40 ------- 1 2.0 0.0 13 36
+ 0.44976 0 1 tcp 1040 ------- 1 0.0 2.0 27 43
+ 0.44976 0 1 tcp 1040 ------- 1 0.0 2.0 28 44
- 0.44976 0 1 tcp 1040 ------- 1 0.0 2.0 27 43
r 0.45144 0 1 tcp 1040 ------- 1 0.0 2.0 24 38
+ 0.45144 1 2 tcp 1040 ------- 1 0.0 2.0 24 38
d 0.45144 1 2 tcp 1040 ------- 1 0.0 2.0 24 38
- 0.45256 1 2 tcp 1040 ------- 1 0.0 2.0 18 29
- 0.45392 0 1 tcp 1040 ------- 1 0.0 2.0 28 44
r 0.45424 1 2 tcp 1040 ------- 1 0.0 2.0 16 26
+ 0.45424 2 1 ack 40 ------- 1 2.0 0.0 16 45
- 0.45424 2 1 ack 40 ------- 1 2.0 0.0 16 45
r 0.4556 0 1 tcp 1040 ------- 1 0.0 2.0 25 40
+ 0.4556 1 2 tcp 1040 ------- 1 0.0 2.0 25 40
r 0.45624 2 1 ack 40 ------- 1 2.0 0.0 15 42
+ 0.45624 1 0 ack 40 ------- 1 2.0 0.0 15 42
- 0.45624 1 0 ack 40 ------- 1 2.0 0.0 15 42
r 0.45808 1 0 ack 40 ------- 1 2.0 0.0 14 39
+ 0.45808 0 1 tcp 1040 ------- 1 0.0 2.0 29 46
+ 0.45808 0 1 tcp 1040 ------- 1 0.0 2.0 30 47
- 0.45808 0 1 tcp 1040 ------- 1 0.0 2.0 29 46
r 0.45976 0 1 tcp 1040 ------- 1 0.0 2.0 26 41
+ 0.45976 1 2 tcp 1040 ------- 1 0.0 2.0 26 41
d 0.45976 1 2 tcp 1040 ------- 1 0.0 2.0 26 41
- 0.46088 1 2 tcp 1040 ------- 1 0.0 2.0 19 31
- 0.46224 0 1 tcp 1040 ------- 1 0.0 2.0 30 47
r 0.46256 1 2 tcp 1040 ------- 1 0.0 2.0 17 28
+ 0.46256 2 1 ack 40 ------- 1 2.0 0.0 17 48
- 0.46256 2 1 ack 40 ------- 1 2.0 0.0 17 48
r 0.46392 0 1 tcp 1040 ------- 1 0.0 2.0 27 43
+ 0.46392 1 2 tcp 1040 ------- 1 0.0 2.0 27 43
r 0.46456 2 1 ack 40 ------- 1 2.0 0.0 16 45
+ 0.46456 1 0 ack 40 ------- 1 2.0 0.0 16 45
- 0.46456 1 0 ack 40 ------- 1 2.0 0.0 16 45
r 0.4664 1 0 ack 40 ------- 1 2.0 0.0 15 42
+ 0.4664 0 1 tcp 1040 ------- 1 0.0 2.0 31 49
+ 0.4664 0 1 tcp 1040 ------- 1 0.0 2.0 32 50
- 0.4664 0 1 tcp 1040 ------- 1 0.0 2.0 31 49
r 0.46808 0 1 tcp 1040 ------- 1 0.0 2.0 28 44
+ 0.46808 1 2 tcp 1040 ------- 1 0.0 2.0 28 44
d 0.46808 1 2 tcp 1040 ------- 1 0.0 2.0 28 44
- 0.4692 1 2 tcp 1040 ------- 1 0.0 2.0 21 34
- 0.47056 0 1 tcp 1040 ------- 1 0.0 2.0 32 50
r 0.47088 1 2 tcp 1040 ------- 1 0.0 2.0 18 29
+ 0.47088 2 1 ack 40 ------- 1 2.0 0.0 18 51
- 0.47088 2 1 ack 40 ------- 1 2.0 0.0 18 51
r 0.47224 0 1 tcp 1040 ------- 1 0.0 2.0 29 46
+ 0.47224 1 2 tcp 1040 ------- 1 0.0 2.0 29 46
r 0.47288 2 1 ack 40 ------- 1 2.0 0.0 17 48
+ 0.47288 1 0 ack 40 ------- 1 2.0 0.0 17 48
- 0.47288 1 0 ack 40 ------- 1 2.0 0.0 17 48
r 0.47472 1 0 ack 40 ------- 1 2.0 0.0 16 45
+ 0.47472 0 1 tcp 1040 ------- 1 0.0 2.0 33 52
+ 0.47472 0 1 tcp 1040 ------- 1 0.0 2.0 34 53
- 0.47472 0 1 tcp 1040 ------- 1 0.0 2.0 33 52
r 0.4764 0 1 tcp 1040 ------- 1 0.0 2.0 30 47
+ 0.4764 1 2 tcp 1040 ------- 1 0.0 2.0 30 47
d 0.4764 1 2 tcp 1040 ------- 1 0.0 2.0 30 47
- 0.47752 1 2 tcp 1040 ------- 1 0.0 2.0 23 37
- 0.47888 0 1 tcp 1040 ------- 1 0.0 2.0 34 53
r 0.4792 1 2 tcp 1040 ------- 1 0.0 2.0 19 31
+ 0.4792 2 1 ack 40 ------- 1 2.0 0.0 19 54
- 0.4792 2 1 ack 40 ------- 1 2.0 0.0 19 54
r 0.48056 0 1 tcp 1040 ------- 1 0.0 2.0 31 49
+ 0.48056 1 2 tcp 1040 ------- 1 0.0 2.0 31 49
r 0.4812 2 1 ack 40 ------- 1 2.0 0.0 18 51
+ 0.4812 1 0 ack 40 ------- 1 2.0 0.0 18 51
- 0.4812 1 0 ack 40 ------- 1 2.0 0.0 18 51
r 0.48304 1 0 ack 40 ------- 1 2.0 0.0 17 48
+ 0.48304 0 1 tcp 1040 ------- 1 0.0 2.0 35 55
+ 0.48304 0 1 tcp 1040 ------- 1 0.0 2.0 36 56
- 0.48304 0 1 tcp 1040 ------- 1 0.0 2.0 35 55
r 0.48472 0 1 tcp 1040 ------- 1 0.0 2.0 32 50
+ 0.48472 1 2 tcp 1040 ------- 1 0.0 2.0 32 50
d 0.48472 1 2 tcp 1040 ------- 1 0.0 2.0 32 50
- 0.48584 1 2 tcp 1040 ------- 1 0.0 2.0 25 40
- 0.4872 0 1 tcp 1040 ------- 1 0.0 2.0 36 56
r 0.48752 1 2 tcp 1040 ------- 1 0.0 2.0 21 34
+ 0.48752 2 1 ack 40 ------- 1 2.0 0.0 19 57
- 0.48752 2 1 ack 40 ------- 1 2.0 0.0 19 57
r 0.48888 0 1 tcp 1040 ------- 1 0.0 2.0 33 52
+ 0.48888 1 2 tcp 1040 ------- 1 0.0 2.0 33 52
r 0.48952 2 1 ack 40 ------- 1 2.0 0.0 19 54
+ 0.48952 1 0 ack 40 ------- 1 2.0 0.0 19 54
- 0.48952 1 0 ack 40 ------- 1 2.0 0.0 19 54
r 0.49136 1 0 ack 40 ------- 1 2.0 0.0 18 51
+ 0.49136 0 1 tcp 1040 ------- 1 0.0 2.0 37 58
+ 0.49136 0 1 tcp 1040 ------- 1 0.0 2.0 38 59
- 0.49136 0 1 tcp 1040 ------- 1 0.0 2.0 37 58
r 0.49304 0 1 tcp 1040 ------- 1 0.0 2.0 34 53
+ 0.49304 1 2 tcp 1040 ------- 1 0.0 2.0 34 53
d 0.49304 1 2 tcp 1040 ------- 1 0.0 2.0 34 53
- 0.49416 1 2 tcp 1040 ------- 1 0.0 2.0 27 43
- 0.49552 0 1 tcp 1040 ------- 1 0.0 2.0 38 59
r 0.49584 1 2 tcp 1040 ------- 1 0.0 2.0 23 37
+ 0.49584 2 1 ack 40 ------- 1 2.0 0.0 19 60
- 0.49584 2 1 ack 40 ------- 1 2.0 0.0 19 60
r 0.4972 0 1 tcp 1040 ------- 1 0.0 2.0 35 55
+ 0.4972 1 2 tcp 1040 ------- 1 0.0 2.0 35 55
r 0.49784 2 1 ack 40 ------- 1 2.0 0.0 19 57
+ 0.49784 1 0 ack 40 ------- 1 2.0 0.0 19 57
- 0.49784 1 0 ack 40 ------- 1 2.0 0.0 19 57
r 0.49968 1 0 ack 40 ------- 1 2.0 0.0 19 54
+ 0.49968 0 1 tcp 1040 ------- 1 0.0 2.0 39 61
- 0.49968 0 1 tcp 1040 ------- 1 0.0 2.0 39 61
r 0.50136 0 1 tcp 1040 ------- 1 0.0 2.0 36 56
+ 0.50136 1 2 tcp 1040 ------- 1 0.0 2.0 36 56
d 0.50136 1 2 tcp 1040 ------- 1 0.0 2.0 36 56
- 0.50248 1 2 tcp 1040 ------- 1 0.0 2.0 29 46
r 0.50416 1 2 tcp 1040 ------- 1 0.0 2.0 25 40
+ 0.50416 2 1 ack 40 ------- 1 2.0 0.0 19 62
- 0.50416 2 1 ack 40 ------- 1 2.0 0.0 19 62
r 0.50552 0 1 tcp 1040 ------- 1 0.0 2.0 37 58
+ 0.50552 1 2 tcp 1040 ------- 1 0.0 2.0 37 58
r 0.50616 2 1 ack 40 ------- 1 2.0 0.0 19 60
+ 0.50616 1 0 ack 40 ------- 1 2.0 0.0 19 60
- 0.50616 1 0 ack 40 ------- 1 2.0 0.0 19 60
r 0.508 1 0 ack 40 ------- 1 2.0 0.0 19 57
r 0.50968 0 1 tcp 1040 ------- 1 0.0 2.0 38 59
+ 0.50968 1 2 tcp 1040 ------- 1 0.0 2.0 38 59
d 0.50968 1 2 tcp 1040 ------- 1 0.0 2.0 38 59
- 0.5108 1 2 tcp 1040 ------- 1 0.0 2.0 31 49
r 0.51248 1 2 tcp 1040 ------- 1 0.0 2.0 27 43
+ 0.51248 2 1 ack 40 ------- 1 2.0 0.0 19 63
- 0.51248 2 1 ack 40 ------- 1 2.0 0.0 19 63
r 0.51384 0 1 tcp 1040 ------- 1 0.0 2.0 39 61
+ 0.51384 1 2 tcp 1040 ------- 1 0.0 2.0 39 61
r 0.51448 2 1 ack 40 ------- 1 2.0 0.0 19 62
+ 0.51448 1 0 ack 40 ------- 1 2.0 0.0 19 62
- 0.51448 1 0 ack 40 ------- 1 2.0 0.0 19 62
r 0.51632 1 0 ack 40 ------- 1 2.0 0.0 19 60
- 0.51912 1 2 tcp 1040 ------- 1 0.0 2.0 33 52
r 0.5208 1 2 tcp 1040 ------- 1 0.0 2.0 29 46
+ 0.5208 2 1 ack 40 ------- 1 2.0 0.0 19 64
- 0.5208 2 1 ack 40 ------- 1 2.0 0.0 19 64
r 0.5228 2 1 ack 40 ------- 1 2.0 0.0 19 63
+ 0.5228 1 0 ack 40 ------- 1 2.0 0.0 19 63
- 0.5228 1 0 ack 40 ------- 1 2.0 0.0 19 63
r 0.52464 1 0 ack 40 ------- 1 2.0 0.0 19 62
+ 0.52464 0 1 tcp 1040 ---A--- 1 0.0 2.0 20 65
- 0.52464 0 1 tcp 1040 ---A--- 1 0.0 2.0 20 65
- 0.52744 1 2 tcp 1040 ------- 1 0.0 2.0 35 55
r 0.52912 1 2 tcp 1040 ------- 1 0.0 2.0 31 49
+ 0.52912 2 1 ack 40 ------- 1 2.0 0.0 19 66
- 0.52912 2 1 ack 40 ------- 1 2.0 0.0 19 66
r 0.53112 2 1 ack 40 ------- 1 2.0 0.0 19 64
+ 0.53112 1 0 ack 40 ------- 1 2.0 0.0 19 64
- 0.53112 1 0 ack 40 ------- 1 2.0 0.0 19 64
r 0.53296 1 0 ack 40 ------- 1 2.0 0.0 19 63
- 0.53576 1 2 tcp 1040 ------- 1 0.0 2.0 37 58
r 0.53744 1 2 tcp 1040 ------- 1 0.0 2.0 33 52
+ 0.53744 2 1 ack 40 ------- 1 2.0 0.0 19 67
- 0.53744 2 1 ack 40 ------- 1 2.0 0.0 19 67
r 0.5388 0 1 tcp 1040 ---A--- 1 0.0 2.0 20 65
+ 0.5388 1 2 tcp 1040 ---A--- 1 0.0 2.0 20 65
r 0.53944 2 1 ack 40 ------- 1 2.0 0.0 19 66
+ 0.53944 1 0 ack 40 ------- 1 2.0 0.0 19 66
- 0.53944 1 0 ack 40 ------- 1 2.0 0.0 19 66
r 0.54128 1 0 ack 40 ------- 1 2.0 0.0 19 64
- 0.54408 1 2 tcp 1040 ------- 1 0.0 2.0 39 61
r 0.54576 1 2 tcp 1040 ------- 1 0.0 2.0 35 55
+ 0.54576 2 1 ack 40 ------- 1 2.0 0.0 19 68
- 0.54576 2 1 ack 40 ------- 1 2.0 0.0 19 68
r 0.54776 2 1 ack 40 ------- 1 2.0 0.0 19 67
+ 0.54776 1 0 ack 40 ------- 1 2.0 0.0 19 67
- 0.54776 1 0 ack 40 ------- 1 2.0 0.0 19 67
r 0.5496 1 0 ack 40 ------- 1 2.0 0.0 19 66
- 0.5524 1 2 tcp 1040 ---A--- 1 0.0 2.0 20 65
r 0.55408 1 2 tcp 1040 ------- 1 0.0 2.0 37 58
+ 0.55408 2 1 ack 40 ------- 1 2.0 0.0 19 69
- 0.55408 2 1 ack 40 ------- 1 2.0 0.0 19 69
r 0.55608 2 1 ack 40 ------- 1 2.0 0.0 19 68
+ 0.55608 1 0 ack 40 ------- 1 2.0 0.0 19 68
- 0.55608 1 0 ack 40 ------- 1 2.0 0.0 19 68
r 0.55792 1 0 ack 40 ------- 1 2.0 0.0 19 67
r 0.5624 1 2 tcp 1040 ------- 1 0.0 2.0 39 61
+ 0.5624 2 1 ack 40 ------- 1 2.0 0.0 19 70
- 0.5624 2 1 ack 40 ------- 1 2.0 0.0 19 70
r 0.5644 2 1 ack 40 ------- 1 2.0 0.0 19 69
+ 0.5644 1 0 ack 40 ------- 1 2.0 0.0 19 69
- 0.5644 1 0 ack 40 ------- 1 2.0 0.0 19 69
r 0.56624 1 0 ack 40 ------- 1 2.0 0.0 19 68
r 0.57072 1 2 tcp 1040 ---A--- 1 0.0 2.0 20 65
+ 0.57072 2 1 ack 40 ------- 1 2.0 0.0 21 71
- 0.57072 2 1 ack 40 ------- 1 2.0 0.0 21 71
r 0.57272 2 1 ack 40 ------- 1 2.0 0.0 19 70
+ 0.57272 1 0 ack 40 ------- 1 2.0 0.0 19 70
- 0.57272 1 0 ack 40 ------- 1 2.0 0.0 19 70
r 0.57456 1 0 ack 40 ------- 1 2.0 0.0 19 69
r 0.58104 2 1 ack 40 ------- 1 2.0 0.0 21 71
+ 0.58104 1 0 ack 40 ------- 1 2.0 0.0 21 71
- 0.58104 1 0 ack 40 ------- 1 2.0 0.0 21 71
r 0.58288 1 0 ack 40 ------- 1 2.0 0.0 19 70
r 0.5912 1 0 ack 40 ------- 1 2.0 0.0 21 71
+ 0.5912 0 1 tcp 1040 ------- 1 0.0 2.0 22 72
- 0.5912 0 1 tcp 1040 ------- 1 0.0 2.0 22 72
+ 0.5912 0 1 tcp 1040 ------- 1 0.0 2.0 23 73
- 0.59536 0 1 tcp 1040 ------- 1 0.0 2.0 23 73
r 0.60536 0 1 tcp 1040 ------- 1 0.0 2.0 22 72
+ 0.60536 1 2 tcp 1040 ------- 1 0.0 2.0 22 72
- 0.60536 1 2 tcp 1040 ------- 1 0.0 2.0 22 72
r 0.60952 0 1 tcp 1040 ------- 1 0.0 2.0 23 73
+ 0.60952 1 2 tcp 1040 ------- 1 0.0 2.0 23 73
- 0.61368 1 2 tcp 1040 ------- 1 0.0 2.0 23 73
r 0.62368 1 2 tcp 1040 ------- 1 0.0 2.0 22 72
+ 0.62368 2 1 ack 40 ------- 1 2.0 0.0 23 74
- 0.62368 2 1 ack 40 ------- 1 2.0 0.0 23 74
r 0.632 1 2 tcp 1040 ------- 1 0.0 2.0 23 73
+ 0.632 2 1 ack 40 ------- 1 2.0 0.0 23 75
- 0.632 2 1 ack 40 ------- 1 2.0 0.0 23 75
r 0.634 2 1 ack 40 ------- 1 2.0 0.0 23 74
+ 0.634 1 0 ack 40 ------- 1 2.0 0.0 23 74
- 0.634 1 0 ack 40 ------- 1 2.0 0.0 23 74
r 0.64232 2 1 ack 40 ------- 1 2.0 0.0 23 75
+ 0.64232 1 0 ack 40 ------- 1 2.0 0.0 23 75
- 0.64232 1 0 ack 40 ------- 1 2.0 0.0 23 75
r 0.64416 1 0 ack 40 ------- 1 2.0 0.0 23 74
+ 0.64416 0 1 tcp 1040 ------- 1 0.0 2.0 24 76
- 0.64416 0 1 tcp 1040 ------- 1 0.0 2.0 24 76
+ 0.64416 0 1 tcp 1040 ------- 1 0.0 2.0 25 77
+ 0.64416 0 1 tcp 1040 ------- 1 0.0 2.0 26 78
- 0.64832 0 1 tcp 1040 ------- 1 0.0 2.0 25 77
r 0.65248 1 0 ack 40 ------- 1 2.0 0.0 23 75
+ 0.65248 0 1 tcp 1040 ------- 1 0.0 2.0 27 79
- 0.65248 0 1 tcp 1040 ------- 1 0.0 2.0 26 78
- 0.65664 0 1 tcp 1040 ------- 1 0.0 2.0 27 79
r 0.65832 0 1 tcp 1040 ------- 1 0.0 2.0 24 76
+ 0.65832 1 2 tcp 1040 ------- 1 0.0 2.0 24 76
- 0.65832 1 2 tcp 1040 ------- 1 0.0 2.0 24 76
r 0.66248 0 1 tcp 1040 ------- 1 0.0 2.0 25 77
+ 0.66248 1 2 tcp 1040 ------- 1 0.0 2.0 25 77
- 0.66664 1 2 tcp 1040 ------- 1 0.0 2.0 25 77
r 0.66664 0 1 tcp 1040 ------- 1 0.0 2.0 26 78
+ 0.66664 1 2 tcp 1040 ------- 1 0.0 2.0 26 78
r 0.6708 0 1 tcp 1040 ------- 1 0.0 2.0 27 79
+ 0.6708 1 2 tcp 1040 ------- 1 0.0 2.0 27 79
- 0.67496 1 2 tcp 1040 ------- 1 0.0 2.0 26 78
r 0.67664 1 2 tcp 1040 ------- 1 0.0 2.0 24 76
+ 0.67664 2 1 ack 40 ------- 1 2.0 0.0 25 80
- 0.67664 2 1 ack 40 ------- 1 2.0 0.0 25 80
- 0.68328 1 2 tcp 1040 ------- 1 0.0 2.0 27 79
r 0.68496 1 2 tcp 1040 ------- 1 0.0 2.0 25 77
+ 0.68496 2 1 ack 40 ------- 1 2.0 0.0 25 81
- 0.68496 2 1 ack 40 ------- 1 2.0 0.0 25 81
r 0.68696 2 1 ack 40 ------- 1 2.0 0.0 25 80
+ 0.68696 1 0 ack 40 ------- 1 2.0 0.0 25 80
- 0.68696 1 0 ack 40 ------- 1 2.0 0.0 25 80
r 0.69328 1 2 tcp 1040 ------- 1 0.0 2.0 26 78
+ 0.69328 2 1 ack 40 ------- 1 2.0 0.0 27 82
- 0.69328 2 1 ack 40 ------- 1 2.0 0.0 27 82
r 0.69528 2 1 ack 40 ------- 1 2.0 0.0 25 81
+ 0.69528 1 0 ack 40 ------- 1 2.0 0.0 25 81
- 0.69528 1 0 ack 40 ------- 1 2.0 0.0 25 81
r 0.69712 1 0 ack 40 ------- 1 2.0 0.0 25 80
+ 0.69712 0 1 tcp 1040 ------- 1 0.0 2.0 28 83
- 0.69712 0 1 tcp 1040 ------- 1 0.0 2.0 28 83
+ 0.69712 0 1 tcp 1040 ------- 1 0.0 2.0 29 84
- 0.70128 0 1 tcp 1040 ------- 1 0.0 2.0 29 84
r 0.7016 1 2 tcp 1040 ------- 1 0.0 2.0 27 79
+ 0.7016 2 1 ack 40 ------- 1 2.0 0.0 27 85
- 0.7016 2 1 ack 40 ------- 1 2.0 0.0 27 85
r 0.7036 2 1 ack 40 ------- 1 2.0 0.0 27 82
+ 0.7036 1 0 ack 40 ------- 1 2.0 0.0 27 82
- 0.7036 1 0 ack 40 ------- 1 2.0 0.0 27 82
r 0.70544 1 0 ack 40 ------- 1 2.0 0.0 25 81
+ 0.70544 0 1 tcp 1040 ------- 1 0.0 2.0 30 86
- 0.70544 0 1 tcp 1040 ------- 1 0.0 2.0 30 86
r 0.71128 0 1 tcp 1040 ------- 1 0.0 2.0 28 83
+ 0.71128 1 2 tcp 1040 ------- 1 0.0 2.0 28 83
- 0.71128 1 2 tcp 1040 ------- 1 0.0 2.0 28 83
r 0.71192 2 1 ack 40 ------- 1 2.0 0.0 27 85
+ 0.71192 1 0 ack 40 ------- 1 2.0 0.0 27 85
- 0.71192 1 0 ack 40 ------- 1 2.0 0.0 27 85
r 0.71376 1 0 ack 40 ------- 1 2.0 0.0 27 82
+ 0.71376 0 1 tcp 1040 ------- 1 0.0 2.0 31 87
- 0.71376 0 1 tcp 1040 ------- 1 0.0 2.0 31 87
+ 0.71376 0 1 tcp 1040 ------- 1 0.0 2.0 32 88
r 0.71544 0 1 tcp 1040 ------- 1 0.0 2.0 29 84
+ 0.71544 1 2 tcp 1040 ------- 1 0.0 2.0 29 84
- 0.71792 0 1 tcp 1040 ------- 1 0.0 2.0 32 88
- 0.7196 1 2 tcp 1040 ------- 1 0.0 2.0 29 84
r 0.7196 0 1 tcp 1040 ------- 1 0.0 2.0 30 86
+ 0.7196 1 2 tcp 1040 ------- 1 0.0 2.0 30 86
r 0.72208 1 0 ack 40 ------- 1 2.0 0.0 27 85
+ 0.72208 0 1 tcp 1040 ------- 1 0.0 2.0 33 89
- 0.72208 0 1 tcp 1040 ------- 1 0.0 2.0 33 89
r 0.72792 0 1 tcp 1040 ------- 1 0.0 2.0 31 87
+ 0.72792 1 2 tcp 1040 ------- 1 0.0 2.0 31 87
- 0.72792 1 2 tcp 1040 ------- 1 0.0 2.0 30 86
r 0.7296 1 2 tcp 1040 ------- 1 0.0 2.0 28 83
+ 0.7296 2 1 ack 40 ------- 1 2.0 0.0 29 90
- 0.7296 2 1 ack 40 ------- 1 2.0 0.0 29 90
r 0.73208 0 1 tcp 1040 ------- 1 0.0 2.0 32 88
+ 0.73208 1 2 tcp 1040 ------- 1 0.0 2.0 32 88
- 0.73624 1 2 tcp 1040 ------- 1 0.0 2.0 31 87
r 0.73624 0 1 tcp 1040 ------- 1 0.0 2.0 33 89
+ 0.73624 1 2 tcp 1040 ------- 1 0.0 2.0 33 89
r 0.73792 1 2 tcp 1040 ------- 1 0.0 2.0 29 84
+ 0.73792 2 1 ack 40 ------- 1 2.0 0.0 29 91
- 0.73792 2 1 ack 40 ------- 1 2.0 0.0 29 91
r 0.73992 2 1 ack 40 ------- 1 2.0 0.0 29 90
+ 0.73992 1 0 ack 40 ------- 1 2.0 0.0 29 90
- 0.73992 1 0 ack 40 ------- 1 2.0 0.0 29 90
- 0.74456 1 2 tcp 1040 ------- 1 0.0 2.0 32 88
r 0.74624 1 2 tcp 1040 ------- 1 0.0 2.0 30 86
+ 0.74624 2 1 ack 40 ------- 1 2.0 0.0 31 92
- 0.74624 2 1 ack 40 ------- 1 2.0 0.0 31 92
r 0.74824 2 1 ack 40 ------- 1 2.0 0.0 29 91
+ 0.74824 1 0 ack 40 ------- 1 2.0 0.0 29 91
- 0.74824 1 0 ack 40 ------- 1 2.0 0.0 29 91
r 0.75008 1 0 ack 40 ------- 1 2.0 0.0 29 90
+ 0.75008 0 1 tcp 1040 ------- 1 0.0 2.0 34 93
- 0.75008 0 1 tcp 1040 ------- 1 0.0 2.0 34 93
+ 0.75008 0 1 tcp 1040 ------- 1 0.0 2.0 35 94
- 0.75288 1 2 tcp 1040 ------- 1 0.0 2.0 33 89
- 0.75424 0 1 tcp 1040 ------- 1 0.0 2.0 35 94
r 0.75456 1 2 tcp 1040 ------- 1 0.0 2.0 31 87
+ 0.75456 2 1 ack 40 ------- 1 2.0 0.0 31 95
- 0.75456 2 1 ack 40 ------- 1 2.0 0.0 31 95
r 0.75656 2 1 ack 40 ------- 1 2.0 0.0 31 92
+ 0.75656 1 0 ack 40 ------- 1 2.0 0.0 31 92
- 0.75656 1 0 ack 40 ------- 1 2.0 0.0 31 92
r 0.7584 1 0 ack 40 ------- 1 2.0 0.0 29 91
+ 0.7584 0 1 tcp 1040 ------- 1 0.0 2.0 36 96
- 0.7584 0 1 tcp 1040 ------- 1 0.0 2.0 36 96
r 0.76288 1 2 tcp 1040 ------- 1 0.0 2.0 32 88
+ 0.76288 2 1 ack 40 ------- 1 2.0 0.0 33 97
- 0.76288 2 1 ack 40 ------- 1 2.0 0.0 33 97
r 0.76424 0 1 tcp 1040 ------- 1 0.0 2.0 34 93
+ 0.76424 1 2 tcp 1040 ------- 1 0.0 2.0 34 93
- 0.76424 1 2 tcp 1040 ------- 1 0.0 2.0 34 93
r 0.76488 2 1 ack 40 ------- 1 2.0 0.0 31 95
+ 0.76488 1 0 ack 40 ------- 1 2.0 0.0 31 95
- 0.76488 1 0 ack 40 ------- 1 2.0 0.0 31 95
r 0.76672 1 0 ack 40 ------- 1 2.0 0.0 31 92
+ 0.76672 0 1 tcp 1040 ------- 1 0.0 2.0 37 98
- 0.76672 0 1 tcp 1040 ------- 1 0.0 2.0 37 98
+ 0.76672 0 1 tcp 1040 ------- 1 0.0 2.0 38 99
r 0.7684 0 1 tcp 1040 ------- 1 0.0 2.0 35 94
+ 0.7684 1 2 tcp 1040 ------- 1 0.0 2.0 35 94
- 0.77088 0 1 tcp 1040 ------- 1 0.0 2.0 38 99
r 0.7712 1 2 tcp 1040 ------- 1 0.0 2.0 33 89
+ 0.7712 2 1 ack 40 ------- 1 2.0 0.0 33 100
- 0.7712 2 1 ack 40 ------- 1 2.0 0.0 33 100
- 0.77256 1 2 tcp 1040 ------- 1 0.0 2.0 35 94
r 0.77256 0 1 tcp 1040 ------- 1 0.0 2.0 36 96
+ 0.77256 1 2 tcp 1040 ------- 1 0.0 2.0 36 96
r 0.7732 2 1 ack 40 ------- 1 2.0 0.0 33 97
+ 0.7732 1 0 ack 40 ------- 1 2.0 0.0 33 97
- 0.7732 1 0 ack 40 ------- 1 2.0 0.0 33 97
r 0.77504 1 0 ack 40 ------- 1 2.0 0.0 31 95
+ 0.77504 0 1 tcp 1040 ------- 1 0.0 2.0 39 101
- 0.77504 0 1 tcp 1040 ------- 1 0.0 2.0 39 101
r 0.78088 0 1 tcp 1040 ------- 1 0.0 2.0 37 98
+ 0.78088 1 2 tcp 1040 ------- 1 0.0 2.0 37 98
- 0.78088 1 2 tcp 1040 ------- 1 0.0 2.0 36 96
r 0.78152 2 1 ack 40 ------- 1 2.0 0.0 33 100
+ 0.78152 1 0 ack 40 ------- 1 2.0 0.0 33 100
- 0.78152 1 0 ack 40 ------- 1 2.0 0.0 33 100
r 0.78256 1 2 tcp 1040 ------- 1 0.0 2.0 34 93
+ 0.78256 2 1 ack 40 ------- 1 2.0 0.0 35 102
- 0.78256 2 1 ack 40 ------- 1 2.0 0.0 35 102
r 0.78336 1 0 ack 40 ------- 1 2.0 0.0 33 97
+ 0.78336 0 1 tcp 1040 ------- 1 0.0 2.0 40 103
- 0.78336 0 1 tcp 1040 ------- 1 0.0 2.0 40 103
+ 0.78336 0 1 tcp 1040 ------- 1 0.0 2.0 41 104
r 0.78504 0 1 tcp 1040 ------- 1 0.0 2.0 38 99
+ 0.78504 1 2 tcp 1040 ------- 1 0.0 2.0 38 99
- 0.78752 0 1 tcp 1040 ------- 1 0.0 2.0 41 104
- 0.7892 1 2 tcp 1040 ------- 1 0.0 2.0 37 98
r 0.7892 0 1 tcp 1040 ------- 1 0.0 2.0 39 101
+ 0.7892 1 2 tcp 1040 ------- 1 0.0 2.0 39 101
r 0.79088 1 2 tcp 1040 ------- 1 0.0 2.0 35 94
+ 0.79088 2 1 ack 40 ------- 1 2.0 0.0 35 105
- 0.79088 2 1 ack 40 ------- 1 2.0 0.0 35 105
r 0.79168 1 0 ack 40 ------- 1 2.0 0.0 33 100
+ 0.79168 0 1 tcp 1040 ------- 1 0.0 2.0 42 106
- 0.79168 0 1 tcp 1040 ------- 1 0.0 2.0 42 106
r 0.79288 2 1 ack 40 ------- 1 2.0 0.0 35 102
+ 0.79288 1 0 ack 40 ------- 1 2.0 0.0 35 102
- 0.79288 1 0 ack 40 ------- 1 2.0 0.0 35 102
r 0.79752 0 1 tcp 1040 ------- 1 0.0 2.0 40 103
+ 0.79752 1 2 tcp 1040 ------- 1 0.0 2.0 40 103
- 0.79752 1 2 tcp 1040 ------- 1 0.0 2.0 38 99
r 0.7992 1 2 tcp 1040 ------- 1 0.0 2.0 36 96
+ 0.7992 2 1 ack 40 ------- 1 2.0 0.0 37 107
- 0.7992 2 1 ack 40 ------- 1 2.0 0.0 37 107
r 0.8012 2 1 ack 40 ------- 1 2.0 0.0 35 105
+ 0.8012 1 0 ack 40 ------- 1 2.0 0.0 35 105
- 0.8012 1 0 ack 40 ------- 1 2.0 0.0 35 105
r 0.80168 0 1 tcp 1040 ------- 1 0.0 2.0 41 104
+ 0.80168 1 2 tcp 1040 ------- 1 0.0 2.0 41 104
r 0.80304 1 0 ack 40 ------- 1 2.0 0.0 35 102
+ 0.80304 0 1 tcp 1040 ------- 1 0.0 2.0 43 108
- 0.80304 0 1 tcp 1040 ------- 1 0.0 2.0 43 108
+ 0.80304 0 1 tcp 1040 ------- 1 0.0 2.0 44 109
- 0.80584 1 2 tcp 1040 ------- 1 0.0 2.0 39 101
r 0.80584 0 1 tcp 1040 ------- 1 0.0 2.0 42 106
+ 0.80584 1 2 tcp 1040 ------- 1 0.0 2.0 42 106
- 0.8072 0 1 tcp 1040 ------- 1 0.0 2.0 44 109
r 0.80752 1 2 tcp 1040 ------- 1 0.0 2.0 37 98
+ 0.80752 2 1 ack 40 ------- 1 2.0 0.0 37 110
- 0.80752 2 1 ack 40 ------- 1 2.0 0.0 37 110
r 0.80952 2 1 ack 40 ------- 1 2.0 0.0 37 107
+ 0.80952 1 0 ack 40 ------- 1 2.0 0.0 37 107
- 0.80952 1 0 ack 40 ------- 1 2.0 0.0 37 107
r 0.81136 1 0 ack 40 ------- 1 2.0 0.0 35 105
+ 0.81136 0 1 tcp 1040 ------- 1 0.0 2.0 45 111
- 0.81136 0 1 tcp 1040 ------- 1 0.0 2.0 45 111
- 0.81416 1 2 tcp 1040 ------- 1 0.0 2.0 40 103
r 0.81584 1 2 tcp 1040 ------- 1 0.0 2.0 38 99
+ 0.81584 2 1 ack 40 ------- 1 2.0 0.0 39 112
- 0.81584 2 1 ack 40 ------- 1 2.0 0.0 39 112
r 0.8172 0 1 tcp 1040 ------- 1 0.0 2.0 43 108
+ 0.8172 1 2 tcp 1040 ------- 1 0.0 2.0 43 108
r 0.81784 2 1 ack 40 ------- 1 2.0 0.0 37 110
+ 0.81784 1 0 ack 40 ------- 1 2.0 0.0 37 110
- 0.81784 1 0 ack 40 ------- 1 2.0 0.0 37 110
r 0.81968 1 0 ack 40 ------- 1 2.0 0.0 37 107
+ 0.81968 0 1 tcp 1040 ------- 1 0.0 2.0 46 113
- 0.81968 0 1 tcp 1040 ------- 1 0.0 2.0 46 113
+ 0.81968 0 1 tcp 1040 ------- 1 0.0 2.0 47 114
r 0.82136 0 1 tcp 1040 ------- 1 0.0 2.0 44 109
+ 0.82136 1 2 tcp 1040 ------- 1 0.0 2.0 44 109
- 0.82248 1 2 tcp 1040 ------- 1 0.0 2.0 41 104
- 0.82384 0 1 tcp 1040 ------- 1 0.0 2.0 47 114
r 0.82416 1 2 tcp 1040 ------- 1 0.0 2.0 39 101
+ 0.82416 2 1 ack 40 ------- 1 2.0 0.0 39 115