V -t * -v 1.0a5 -a 0
A -t * -n 1 -p 0 -o 0x7fffffff -c 30 -a 1
A -t * -h 1 -m 1073741823 -s 0
c -t * -i 1 -n Blue
n -t * -a 0 -s 0 -S UP -v circle -c black -i black
n -t * -a 1 -s 1 -S UP -v circle -c black -i black
n -t * -a 2 -s 2 -S UP -v circle -c black -i black
l -t * -s 0 -d 1 -S UP -r 2000000 -D 0.01 -c black -o right-up
l -t * -s 1 -d 2 -S UP -r 1000000 -D 0.01 -c black -o right
+ -t 0.2 -s 0 -d 1 -p tcp -e 40 -c 1 -i 0 -a 1 -x {0.0 2.0 0 ------- null}
- -t 0.2 -s 0 -d 1 -p tcp -e 40 -c 1 -i 0 -a 1 -x {0.0 2.0 0 ------- null}
h -t 0.2 -s 0 -d 1 -p tcp -e 40 -c 1 -i 0 -a 1 -x {0.0 2.0 -1 ------- null}
r -t 0.21016 -s 0 -d 1 -p tcp -e 40 -c 1 -i 0 -a 1 -x {0.0 2.0 0 ------- null}
+ -t 0.21016 -s 1 -d 2 -p tcp -e 40 -c 1 -i 0 -a 1 -x {0.0 2.0 0 ------- null}
- -t 0.21016 -s 1 -d 2 -p tcp -e 40 -c 1 -i 0 -a 1 -x {0.0 2.0 0 ------- null}
h -t 0.21016 -s 1 -d 2 -p tcp -e 40 -c 1 -i 0 -a 1 -x {0.0 2.0 -1 ------- null}
r -t 0.22048 -s 1 -d 2 -p tcp -e 40 -c 1 -i 0 -a 1 -x {0.0 2.0 0 ------- null}
+ -t 0.22048 -s 2 -d 1 -p ack -e 40 -c 1 -i 1 -a 1 -x {2.0 0.0 0 ------- null}
- -t 0.22048 -s 2 -d 1 -p ack -e 40 -c 1 -i 1 -a 1 -x {2.0 0.0 0 ------- null}
h -t 0.22048 -s 2 -d 1 -p ack -e 40 -c 1 -i 1 -a 1 -x {2.0 0.0 -1 ------- null}
r -t 0.2308 -s 2 -d 1 -p ack -e 40 -c 1 -i 1 -a 1 -x {2.0 0.0 0 ------- null}
+ -t 0.2308 -s 1 -d 0 -p ack -e 40 -c 1 -i 1 -a 1 -x {2.0 0.0 0 ------- null}
- -t 0.2308 -s 1 -d 0 -p ack -e 40 -c 1 -i 1 -a 1 -x {2.0 0.0 0 ------- null}
h -t 0.2308 -s 1 -d 0 -p ack -e 40 -c 1 -i 1 -a 1 -x {2.0 0.0 -1 ------- null}
r -t 0.24096 -s 1 -d 0 -p ack -e 40 -c 1 -i 1 -a 1 -x {2.0 0.0 0 ------- null}
+ -t 0.24096 -s 0 -d 1 -p tcp -e 1040 -c 1 -i 2 -a 1 -x {0.0 2.0 1 ------- null}
- -t 0.24096 -s 0 -d 1 -p tcp -e 1040 -c 1 -i 2 -a 1 -x {0.0 2.0 1 ------- null}
h -t 0.24096 -s 0 -d 1 -p tcp -e 1040 -c 1 -i 2 -a 1 -x {0.0 2.0 -1 ------- null}
+ -t 0.24096 -s 0 -d 1 -p tcp -e 1040 -c 1 -i 3 -a 1 -x {0.0 2.0 2 ------- null}
- -t 0.24512 -s 0 -d 1 -p tcp -e 1040 -c 1 -i 3 -a 1 -x {0.0 2.0 2 ------- null}
h -t 0.24512 -s 0 -d 1 -p tcp -e 1040 -c 1 -i 3 -a 1 -x {0.0 2.0 -1 ------- null}
r -t 0.25512 -s 0 -d 1 -p tcp -e 1040 -c 1 -i 2 -a 1 -x {0.0 2.0 1 ------- null}
+ -t 0.25512 -s 1 -d 2 -p tcp -e 1040 -c 1 -i 2 -a 1 -x {0.0 2.0 1 ------- null}
- -t 0.25512 -s 1 -d 2 -p tcp -e 1040 -c 1 -i 2 -a 1 -x {0.0 2.0 1 ------- null}
h -t 0.25512 -s 1 -d 2 -p tcp -e 1040 -c 1 -i 2 -a 1 -x {0.0 2.0 -1 ------- null}
r -t 0.25928 -s 0 -d 1 -p tcp -e 1040 -c 1 -i 3 -a 1 -x {0.0 2.0 2 ------- null}
+ -t 0.25928 -s 1 -d 2 -p tcp -e 1040 -c 1 -i 3 -a 1 -x {0.0 2.0 2 ------- null}
- -t 0.26344 -s 1 -d 2 -p tcp -e 1040 -c 1 -i 3 -a 1 -x {0.0 2.0 2 ------- null}
h -t 0.26344 -s 1 -d 2 -p tcp -e 1040 -c 1 -i 3 -a 1 -x {0.0 2.0 -1 ------- null}
r -t 0.27344 -s 1 -d 2 -p tcp -e 1040 -c 1 -i 2 -a 1 -x {0.0 2.0 1 ------- null}
+ -t 0.27344 -s 2 -d 1 -p ack -e 40 -c 1 -i 4 -a 1 -x {2.0 0.0 1 ------- null}
- -t 0.27344 -s 2 -d 1 -p ack -e 40 -c 1 -i 4 -a 1 -x {2.0 0.0 1 ------- null}
h -t 0.27344 -s 2 -d 1 -p ack -e 40 -c 1 -i 4 -a 1 -x {2.0 0.0 -1 ------- null}
r -t 0.28176 -s 1 -d 2 -p tcp -e 1040 -c 1 -i 3 -a 1 -x {0.0 2.0 2 ------- null}
+ -t 0.28176 -s 2 -d 1 -p ack -e 40 -c 1 -i 5 -a 1 -x {2.0 0.0 2 ------- null}
- -t 0.28176 -s 2 -d 1 -p ack -e 40 -c 1 -i 5 -a 1 -x {2.0 0.0 2 ------- null}
h -t 0.28176 -s 2 -d 1 -p ack -e 40 -c 1 -i 5 -a 1 -x {2.0 0.0 -1 ------- null}
r -t 0.28376 -s 2 -d 1 -p ack -e 40 -c 1 -i 4 -a 1 -x {2.0 0.0 1 ------- null}
+ -t 0.28376 -s 1 -d 0 -p ack -e 40 -c 1 -i 4 -a 1 -x {2.0 0.0 1 ------- null}
- -t 0.28376 -s 1 -d 0 -p ack -e 40 -c 1 -i 4 -a 1 -x {2.0 0.0 1 ------- null}
h -t 0.28376 -s 1 -d 0 -p ack -e 40 -c 1 -i 4 -a 1 -x {2.0 0.0 -1 ------- null}
r -t 0.29208 -s 2 -d 1 -p ack -e 40 -c 1 -i 5 -a 1 -x {2.0 0.0 2 ------- null}
+ -t 0.29208 -s 1 -d 0 -p ack -e 40 -c 1 -i 5 -a 1 -x {2.0 0.0 2 ------- null}
- -t 0.29208 -s 1 -d 0 -p ack -e 40 -c 1 -i 5 -a 1 -x {2.0 0.0 2 ------- null}
h -t 0.29208 -s 1 -d 0 -p ack -e 40 -c 1 -i 5 -a 1 -x {2.0 0.0 -1 ------- null}
r -t 0.29392 -s 1 -d 0 -p ack -e 40 -c 1 -i 4 -a 1 -x {2.0 0.0 1 ------- null}
+ -t 0.29392 -s 0 -d 1 -p tcp -e 1040 -c 1 -i 6 -a 1 -x {0.0 2.0 3 ------- null}
- -t 0.29392 -s 0 -d 1 -p tcp -e 1040 -c 1 -i 6 -a 1 -x {0.0 2.0 3 ------- null}
h -t 0.29392 -s 0 -d 1 -p tcp -e 1040 -c 1 -i 6 -a 1 -x {0.0 2.0 -1 ------- null}
+ -t 0.29392 -s 0 -d 1 -p tcp -e 1040 -c 1 -i 7 -a 1 -x {0.0 2.0 4 ------- null}
- -t 0.29808 -s 0 -d 1 -p tcp -e 1040 -c 1 -i 7 -a 1 -x {0.0 2.0 4 ------- null}
h -t 0.29808 -s 0 -d 1 -p tcp -e 1040 -c 1 -i 7 -a 1 -x {0.0 2.0 -1 ------- null}
r -t 0.30224 -s 1 -d 0 -p ack -e 40 -c 1 -i 5 -a 1 -x {2.0 0.0 2 ------- null}
+ -t 0.30224 -s 0 -d 1 -p tcp -e 1040 -c 1 -i 8 -a 1 -x {0.0 2.0 5 ------- null}
+ -t 0.30224 -s 0 -d 1 -p tcp -e 1040 -c 1 -i 9 -a 1 -x {0.0 2.0 6 ------- null}
- -t 0.30224 -s 0 -d 1 -p tcp -e 1040 -c 1 -i 8 -a 1 -x {0.0 2.0 5 ------- null}
h -t 0.30224 -s 0 -d 1 -p tcp -e 1040 -c 1 -i 8 -a 1 -x {0.0 2.0 -1 ------- null}
- -t 0.3064 -s 0 -d 1 -p tcp -e 1040 -c 1 -i 9 -a 1 -x {0.0 2.0 6 ------- null}
h -t 0.3064 -s 0 -d 1 -p tcp -e 1040 -c 1 -i 9 -a 1 -x {0.0 2.0 -1 ------- null}
r -t 0.30808 -s 0 -d 1 -p tcp -e 1040 -c 1 -i 6 -a 1 -x {0.0 2.0 3 ------- null}
+ -t 0.30808 -s 1 -d 2 -p tcp -e 1040 -c 1 -i 6 -a 1 -x {0.0 2.0 3 ------- null}
- -t 0.30808 -s 1 -d 2 -p tcp -e 1040 -c 1 -i 6 -a 1 -x {0.0 2.0 3 ------- null}
h -t 0.30808 -s 1 -d 2 -p tcp -e 1040 -c 1 -i 6 -a 1 -x {0.0 2.0 -1 ------- null}
r -t 0.31224 -s 0 -d 1 -p tcp -e 1040 -c 1 -i 7 -a 1 -x {0.0 2.0 4 ------- null}
+ -t 0.31224 -s 1 -d 2 -p tcp -e 1040 -c 1 -i 7 -a 1 -x {0.0 2.0 4 ------- null}
r -t 0.3164 -s 0 -d 1 -p tcp -e 1040 -c 1 -i 8 -a 1 -x {0.0 2.0 5 ------- null}
+ -t 0.3164 -s 1 -d 2 -p tcp -e 1040 -c 1 -i 8 -a 1 -x {0.0 2.0 5 ------- null}
- -t 0.3164 -s 1 -d 2 -p tcp -e 1040 -c 1 -i 7 -a 1 -x {0.0 2.0 4 ------- null}
h -t 0.3164 -s 1 -d 2 -p tcp -e 1040 -c 1 -i 7 -a 1 -x {0.0 2.0 -1 ------- null}
r -t 0.32056 -s 0 -d 1 -p tcp -e 1040 -c 1 -i 9 -a 1 -x {0.0 2.0 6 ------- null}
+ -t 0.32056 -s 1 -d 2 -p tcp -e 1040 -c 1 -i 9 -a 1 -x {0.0 2.0 6 ------- null}
- -t 0.32472 -s 1 -d 2 -p tcp -e 1040 -c 1 -i 8 -a 1 -x {0.0 2.0 5 ------- null}
h -t 0.32472 -s 1 -d 2 -p tcp -e 1040 -c 1 -i 8 -a 1 -x {0.0 2.0 -1 ------- null}
r -t 0.3264 -s 1 -d 2 -p tcp -e 1040 -c 1 -i 6 -a 1 -x {0.0 2.0 3 ------- null}
+ -t 0.3264 -s 2 -d 1 -p ack -e 40 -c 1 -i 10 -a 1 -x {2.0 0.0 3 ------- null}
- -t 0.3264 -s 2 -d 1 -p ack -e 40 -c 1 -i 10 -a 1 -x {2.0 0.0 3 ------- null}
h -t 0.3264 -s 2 -d 1 -p ack -e 40 -c 1 -i 10 -a 1 -x {2.0 0.0 -1 ------- null}
- -t 0.33304 -s 1 -d 2 -p tcp -e 1040 -c 1 -i 9 -a 1 -x {0.0 2.0 6 ------- null}
h -t 0.33304 -s 1 -d 2 -p tcp -e 1040 -c 1 -i 9 -a 1 -x {0.0 2.0 -1 ------- null}
r -t 0.33472 -s 1 -d 2 -p tcp -e 1040 -c 1 -i 7 -a 1 -x {0.0 2.0 4 ------- null}
+ -t 0.33472 -s 2 -d 1 -p ack -e 40 -c 1 -i 11 -a 1 -x {2.0 0.0 4 ------- null}
- -t 0.33472 -s 2 -d 1 -p ack -e 40 -c 1 -i 11 -a 1 -x {2.0 0.0 4 ------- null}
h -t 0.33472 -s 2 -d 1 -p ack -e 40 -c 1 -i 11 -a 1 -x {2.0 0.0 -1 ------- null}
r -t 0.33672 -s 2 -d 1 -p ack -e 40 -c 1 -i 10 -a 1 -x {2.0 0.0 3 ------- null}
+ -t 0.33672 -s 1 -d 0 -p ack -e 40 -c 1 -i 10 -a 1 -x {2.0 0.0 3 ------- null}
- -t 0.33672 -s 1 -d 0 -p ack -e 40 -c 1 -i 10 -a 1 -x {2.0 0.0 3 ------- null}
h -t 0.33672 -s 1 -d 0 -p ack -e 40 -c 1 -i 10 -a 1 -x {2.0 0.0 -1 ------- null}
r -t 0.34304 -s 1 -d 2 -p tcp -e 1040 -c 1 -i 8 -a 1 -x {0.0 2.0 5 ------- null}
+ -t 0.34304 -s 2 -d 1 -p ack -e 40 -c 1 -i 12 -a 1 -x {2.0 0.0 5 ------- null}
- -t 0.34304 -s 2 -d 1 -p ack -e 40 -c 1 -i 12 -a 1 -x {2.0 0.0 5 ------- null}
h -t 0.34304 -s 2 -d 1 -p ack -e 40 -c 1 -i 12 -a 1 -x {2.0 0.0 -1 ------- null}
r -t 0.34504 -s 2 -d 1 -p ack -e 40 -c 1 -i 11 -a 1 -x {2.0 0.0 4 ------- null}
+ -t 0.34504 -s 1 -d 0 -p ack -e 40 -c 1 -i 11 -a 1 -x {2.0 0.0 4 ------- null}
- -t 0.34504 -s 1 -d 0 -p ack -e 40 -c 1 -i 11 -a 1 -x {2.0 0.0 4 ------- null}
h -t 0.34504 -s 1 -d 0 -p ack -e 40 -c 1 -i 11 -a 1 -x {2.0 0.0 -1 ------- null}
r -t 0.34688 -s 1 -d 0 -p ack -e 40 -c 1 -i 10 -a 1 -x {2.0 0.0 3 ------- null}
+ -t 0.34688 -s 0 -d 1 -p tcp -e 1040 -c 1 -i 13 -a 1 -x {0.0 2.0 7 ------- null}
- -t 0.34688 -s 0 -d 1 -p tcp -e 1040 -c 1 -i 13 -a 1 -x {0.0 2.0 7 ------- null}
h -t 0.34688 -s 0 -d 1 -p tcp -e 1040 -c 1 -i 13 -a 1 -x {0.0 2.0 -1 ------- null}
+ -t 0.34688 -s 0 -d 1 -p tcp -e 1040 -c 1 -i 14 -a 1 -x {0.0 2.0 8 ------- null}
- -t 0.35104 -s 0 -d 1 -p tcp -e 1040 -c 1 -i 14 -a 1 -x {0.0 2.0 8 ------- null}
h -t 0.35104 -s 0 -d 1 -p tcp -e 1040 -c 1 -i 14 -a 1 -x {0.0 2.0 -1 ------- null}
r -t 0.35136 -s 1 -d 2 -p tcp -e 1040 -c 1 -i 9 -a 1 -x {0.0 2.0 6 ------- null}
+ -t 0.35136 -s 2 -d 1 -p ack -e 40 -c 1 -i 15 -a 1 -x {2.0 0.0 6 ------- null}
- -t 0.35136 -s 2 -d 1 -p ack -e 40 -c 1 -i 15 -a 1 -x {2.0 0.0 6 ------- null}
h -t 0.35136 -s 2 -d 1 -p ack -e 40 -c 1 -i 15 -a 1 -x {2.0 0.0 -1 ------- null}
r -t 0.35336 -s 2 -d 1 -p ack -e 40 -c 1 -i 12 -a 1 -x {2.0 0.0 5 ------- null}
+ -t 0.35336 -s 1 -d 0 -p ack -e 40 -c 1 -i 12 -a 1 -x {2.0 0.0 5 ------- null}
- -t 0.35336 -s 1 -d 0 -p ack -e 40 -c 1 -i 12 -a 1 -x {2.0 0.0 5 ------- null}
h -t 0.35336 -s 1 -d 0 -p ack -e 40 -c 1 -i 12 -a 1 -x {2.0 0.0 -1 ------- null}
r -t 0.3552 -s 1 -d 0 -p ack -e 40 -c 1 -i 11 -a 1 -x {2.0 0.0 4 ------- null}
+ -t 0.3552 -s 0 -d 1 -p tcp -e 1040 -c 1 -i 16 -a 1 -x {0.0 2.0 9 ------- null}
+ -t 0.3552 -s 0 -d 1 -p tcp -e 1040 -c 1 -i 17 -a 1 -x {0.0 2.0 10 ------- null}
- -t 0.3552 -s 0 -d 1 -p tcp -e 1040 -c 1 -i 16 -a 1 -x {0.0 2.0 9 ------- null}
h -t 0.3552 -s 0 -d 1 -p tcp -e 1040 -c 1 -i 16 -a 1 -x {0.0 2.0 -1 ------- null}
- -t 0.35936 -s 0 -d 1 -p tcp -e 1040 -c 1 -i 17 -a 1 -x {0.0 2.0 10 ------- null}
h -t 0.35936 -s 0 -d 1 -p tcp -e 1040 -c 1 -i 17 -a 1 -x {0.0 2.0 -1 ------- null}
r -t 0.36104 -s 0 -d 1 -p tcp -e 1040 -c 1 -i 13 -a 1 -x {0.0 2.0 7 ------- null}
+ -t 0.36104 -s 1 -d 2 -p tcp -e 1040 -c 1 -i 13 -a 1 -x {0.0 2.0 7 ------- null}
- -t 0.36104 -s 1 -d 2 -p tcp -e 1040 -c 1 -i 13 -a 1 -x {0.0 2.0 7 ------- null}
h -t 0.36104 -s 1 -d 2 -p tcp -e 1040 -c 1 -i 13 -a 1 -x {0.0 2.0 -1 ------- null}
r -t 0.36168 -s 2 -d 1 -p ack -e 40 -c 1 -i 15 -a 1 -x {2.0 0.0 6 ------- null}
+ -t 0.36168 -s 1 -d 0 -p ack -e 40 -c 1 -i 15 -a 1 -x {2.0 0.0 6 ------- null}
- -t 0.36168 -s 1 -d 0 -p ack -e 40 -c 1 -i 15 -a 1 -x {2.0 0.0 6 ------- null}
h -t 0.36168 -s 1 -d 0 -p ack -e 40 -c 1 -i 15 -a 1 -x {2.0 0.0 -1 ------- null}
r -t 0.36352 -s 1 -d 0 -p ack -e 40 -c 1 -i 12 -a 1 -x {2.0 0.0 5 ------- null}
+ -t 0.36352 -s 0 -d 1 -p tcp -e 1040 -c 1 -i 18 -a 1 -x {0.0 2.0 11 ------- null}
+ -t 0.36352 -s 0 -d 1 -p tcp -e 1040 -c 1 -i 19 -a 1 -x {0.0 2.0 12 ------- null}
- -t 0.36352 -s 0 -d 1 -p tcp -e 1040 -c 1 -i 18 -a 1 -x {0.0 2.0 11 ------- null}
h -t 0.36352 -s 0 -d 1 -p tcp -e 1040 -c 1 -i 18 -a 1 -x {0.0 2.0 -1 ------- null}
r -t 0.3652 -s 0 -d 1 -p tcp -e 1040 -c 1 -i 14 -a 1 -x {0.0 2.0 8 ------- null}
+ -t 0.3652 -s 1 -d 2 -p tcp -e 1040 -c 1 -i 14 -a 1 -x {0.0 2.0 8 ------- null}
- -t 0.36768 -s 0 -d 1 -p tcp -e 1040 -c 1 -i 19 -a 1 -x {0.0 2.0 12 ------- null}
h -t 0.36768 -s 0 -d 1 -p tcp -e 1040 -c 1 -i 19 -a 1 -x {0.0 2.0 -1 ------- null}
r -t 0.36936 -s 0 -d 1 -p tcp -e 1040 -c 1 -i 16 -a 1 -x {0.0 2.0 9 ------- null}
+ -t 0.36936 -s 1 -d 2 -p tcp -e 1040 -c 1 -i 16 -a 1 -x {0.0 2.0 9 ------- null}
- -t 0.36936 -s 1 -d 2 -p tcp -e 1040 -c 1 -i 14 -a 1 -x {0.0 2.0 8 ------- null}
h -t 0.36936 -s 1 -d 2 -p tcp -e 1040 -c 1 -i 14 -a 1 -x {0.0 2.0 -1 ------- null}
r -t 0.37184 -s 1 -d 0 -p ack -e 40 -c 1 -i 15 -a 1 -x {2.0 0.0 6 ------- null}
+ -t 0.37184 -s 0 -d 1 -p tcp -e 1040 -c 1 -i 20 -a 1 -x {0.0 2.0 13 ------- null}
+ -t 0.37184 -s 0 -d 1 -p tcp -e 1040 -c 1 -i 21 -a 1 -x {0.0 2.0 14 ------- null}
- -t 0.37184 -s 0 -d 1 -p tcp -e 1040 -c 1 -i 20 -a 1 -x {0.0 2.0 13 ------- null}
h -t 0.37184 -s 0 -d 1 -p tcp -e 1040 -c 1 -i 20 -a 1 -x {0.0 2.0 -1 ------- null}
r -t 0.37352 -s 0 -d 1 -p tcp -e 1040 -c 1 -i 17 -a 1 -x {0.0 2.0 10 ------- null}
+ -t 0.37352 -s 1 -d 2 -p tcp -e 1040 -c 1 -i 17 -a 1 -x {0.0 2.0 10 ------- null}
- -t 0.376 -s 0 -d 1 -p tcp -e 1040 -c 1 -i 21 -a 1 -x {0.0 2.0 14 ------- null}
h -t 0.376 -s 0 -d 1 -p tcp -e 1040 -c 1 -i 21 -a 1 -x {0.0 2.0 -1 ------- null}
r -t 0.37768 -s 0 -d 1 -p tcp -e 1040 -c 1 -i 18 -a 1 -x {0.0 2.0 11 ------- null}
+ -t 0.37768 -s 1 -d 2 -p tcp -e 1040 -c 1 -i 18 -a 1 -x {0.0 2.0 11 ------- null}
- -t 0.37768 -s 1 -d 2 -p tcp -e 1040 -c 1 -i 16 -a 1 -x {0.0 2.0 9 ------- null}
h -t 0.37768 -s 1 -d 2 -p tcp -e 1040 -c 1 -i 16 -a 1 -x {0.0 2.0 -1 ------- null}
r -t 0.37936 -s 1 -d 2 -p tcp -e 1040 -c 1 -i 13 -a 1 -x {0.0 2.0 7 ------- null}
+ -t 0.37936 -s 2 -d 1 -p ack -e 40 -c 1 -i 22 -a 1 -x {2.0 0.0 7 ------- null}
- -t 0.37936 -s 2 -d 1 -p ack -e 40 -c 1 -i 22 -a 1 -x {2.0 0.0 7 ------- null}
h -t 0.37936 -s 2 -d 1 -p ack -e 40 -c 1 -i 22 -a 1 -x {2.0 0.0 -1 ------- null}
r -t 0.38184 -s 0 -d 1 -p tcp -e 1040 -c 1 -i 19 -a 1 -x {0.0 2.0 12 ------- null}
+ -t 0.38184 -s 1 -d 2 -p tcp -e 1040 -c 1 -i 19 -a 1 -x {0.0 2.0 12 ------- null}
r -t 0.386 -s 0 -d 1 -p tcp -e 1040 -c 1 -i 20 -a 1 -x {0.0 2.0 13 ------- null}
+ -t 0.386 -s 1 -d 2 -p tcp -e 1040 -c 1 -i 20 -a 1 -x {0.0 2.0 13 ------- null}
- -t 0.386 -s 1 -d 2 -p tcp -e 1040 -c 1 -i 17 -a 1 -x {0.0 2.0 10 ------- null}
h -t 0.386 -s 1 -d 2 -p tcp -e 1040 -c 1 -i 17 -a 1 -x {0.0 2.0 -1 ------- null}
r -t 0.38768 -s 1 -d 2 -p tcp -e 1040 -c 1 -i 14 -a 1 -x {0.0 2.0 8 ------- null}
+ -t 0.38768 -s 2 -d 1 -p ack -e 40 -c 1 -i 23 -a 1 -x {2.0 0.0 8 ------- null}
- -t 0.38768 -s 2 -d 1 -p ack -e 40 -c 1 -i 23 -a 1 -x {2.0 0.0 8 ------- null}
h -t 0.38768 -s 2 -d 1 -p ack -e 40 -c 1 -i 23 -a 1 -x {2.0 0.0 -1 ------- null}
r -t 0.38968 -s 2 -d 1 -p ack -e 40 -c 1 -i 22 -a 1 -x {2.0 0.0 7 ------- null}
+ -t 0.38968 -s 1 -d 0 -p ack -e 40 -c 1 -i 22 -a 1 -x {2.0 0.0 7 ------- null}
- -t 0.38968 -s 1 -d 0 -p ack -e 40 -c 1 -i 22 -a 1 -x {2.0 0.0 7 ------- null}
h -t 0.38968 -s 1 -d 0 -p ack -e 40 -c 1 -i 22 -a 1 -x {2.0 0.0 -1 ------- null}
r -t 0.39016 -s 0 -d 1 -p tcp -e 1040 -c 1 -i 21 -a 1 -x {0.0 2.0 14 ------- null}
+ -t 0.39016 -s 1 -d 2 -p tcp -e 1040 -c 1 -i 21 -a 1 -x {0.0 2.0 14 ------- null}
- -t 0.39432 -s 1 -d 2 -p tcp -e 1040 -c 1 -i 18 -a 1 -x {0.0 2.0 11 ------- null}
h -t 0.39432 -s 1 -d 2 -p tcp -e 1040 -c 1 -i 18 -a 1 -x {0.0 2.0 -1 ------- null}
r -t 0.396 -s 1 -d 2 -p tcp -e 1040 -c 1 -i 16 -a 1 -x {0.0 2.0 9 ------- null}
+ -t 0.396 -s 2 -d 1 -p ack -e 40 -c 1 -i 24 -a 1 -x {2.0 0.0 9 ------- null}
- -t 0.396 -s 2 -d 1 -p ack -e 40 -c 1 -i 24 -a 1 -x {2.0 0.0 9 ------- null}
h -t 0.396 -s 2 -d 1 -p ack -e 40 -c 1 -i 24 -a 1 -x {2.0 0.0 -1 ------- null}
r -t 0.398 -s 2 -d 1 -p ack -e 40 -c 1 -i 23 -a 1 -x {2.0 0.0 8 ------- null}
+ -t 0.398 -s 1 -d 0 -p ack -e 40 -c 1 -i 23 -a 1 -x {2.0 0.0 8 ------- null}
- -t 0.398 -s 1 -d 0 -p ack -e 40 -c 1 -i 23 -a 1 -x {2.0 0.0 8 ------- null}
h -t 0.398 -s 1 -d 0 -p ack -e 40 -c 1 -i 23 -a 1 -x {2.0 0.0 -1 ------- null}
r -t 0.39984 -s 1 -d 0 -p ack -e 40 -c 1 -i 22 -a 1 -x {2.0 0.0 7 ------- null}
+ -t 0.39984 -s 0 -d 1 -p tcp -e 1040 -c 1 -i 25 -a 1 -x {0.0 2.0 15 ------- null}
- -t 0.39984 -s 0 -d 1 -p tcp -e 1040 -c 1 -i 25 -a 1 -x {0.0 2.0 15 ------- null}
h -t 0.39984 -s 0 -d 1 -p tcp -e 1040 -c 1 -i 25 -a 1 -x {0.0 2.0 -1 ------- null}
+ -t 0.39984 -s 0 -d 1 -p tcp -e 1040 -c 1 -i 26 -a 1 -x {0.0 2.0 16 ------- null}
- -t 0.40264 -s 1 -d 2 -p tcp -e 1040 -c 1 -i 19 -a 1 -x {0.0 2.0 12 ------- null}
h -t 0.40264 -s 1 -d 2 -p tcp -e 1040 -c 1 -i 19 -a 1 -x {0.0 2.0 -1 ------- null}
- -t 0.404 -s 0 -d 1 -p tcp -e 1040 -c 1 -i 26 -a 1 -x {0.0 2.0 16 ------- null}
h -t 0.404 -s 0 -d 1 -p tcp -e 1040 -c 1 -i 26 -a 1 -x {0.0 2.0 -1 ------- null}
r -t 0.40432 -s 1 -d 2 -p tcp -e 1040 -c 1 -i 17 -a 1 -x {0.0 2.0 10 ------- null}
+ -t 0.40432 -s 2 -d 1 -p ack -e 40 -c 1 -i 27 -a 1 -x {2.0 0.0 10 ------- null}
- -t 0.40432 -s 2 -d 1 -p ack -e 40 -c 1 -i 27 -a 1 -x {2.0 0.0 10 ------- null}
h -t 0.40432 -s 2 -d 1 -p ack -e 40 -c 1 -i 27 -a 1 -x {2.0 0.0 -1 ------- null}
r -t 0.40632 -s 2 -d 1 -p ack -e 40 -c 1 -i 24 -a 1 -x {2.0 0.0 9 ------- null}
+ -t 0.40632 -s 1 -d 0 -p ack -e 40 -c 1 -i 24 -a 1 -x {2.0 0.0 9 ------- null}
- -t 0.40632 -s 1 -d 0 -p ack -e 40 -c 1 -i 24 -a 1 -x {2.0 0.0 9 ------- null}
h -t 0.40632 -s 1 -d 0 -p ack -e 40 -c 1 -i 24 -a 1 -x {2.0 0.0 -1 ------- null}
r -t 0.40816 -s 1 -d 0 -p ack -e 40 -c 1 -i 23 -a 1 -x {2.0 0.0 8 ------- null}
+ -t 0.40816 -s 0 -d 1 -p tcp -e 1040 -c 1 -i 28 -a 1 -x {0.0 2.0 17 ------- null}
+ -t 0.40816 -s 0 -d 1 -p tcp -e 1040 -c 1 -i 29 -a 1 -x {0.0 2.0 18 ------- null}
- -t 0.40816 -s 0 -d 1 -p tcp -e 1040 -c 1 -i 28 -a 1 -x {0.0 2.0 17 ------- null}
h -t 0.40816 -s 0 -d 1 -p tcp -e 1040 -c 1 -i 28 -a 1 -x {0.0 2.0 -1 ------- null}
- -t 0.41096 -s 1 -d 2 -p tcp -e 1040 -c 1 -i 20 -a 1 -x {0.0 2.0 13 ------- null}
h -t 0.41096 -s 1 -d 2 -p tcp -e 1040 -c 1 -i 20 -a 1 -x {0.0 2.0 -1 ------- null}
- -t 0.41232 -s 0 -d 1 -p tcp -e 1040 -c 1 -i 29 -a 1 -x {0.0 2.0 18 ------- null}
h -t 0.41232 -s 0 -d 1 -p tcp -e 1040 -c 1 -i 29 -a 1 -x {0.0 2.0 -1 ------- null}
r -t 0.41264 -s 1 -d 2 -p tcp -e 1040 -c 1 -i 18 -a 1 -x {0.0 2.0 11 ------- null}
+ -t 0.41264 -s 2 -d 1 -p ack -e 40 -c 1 -i 30 -a 1 -x {2.0 0.0 11 ------- null}
- -t 0.41264 -s 2 -d 1 -p ack -e 40 -c 1 -i 30 -a 1 -x {2.0 0.0 11 ------- null}
h -t 0.41264 -s 2 -d 1 -p ack -e 40 -c 1 -i 30 -a 1 -x {2.0 0.0 -1 ------- null}
r -t 0.414 -s 0 -d 1 -p tcp -e 1040 -c 1 -i 25 -a 1 -x {0.0 2.0 15 ------- null}
+ -t 0.414 -s 1 -d 2 -p tcp -e 1040 -c 1 -i 25 -a 1 -x {0.0 2.0 15 ------- null}
r -t 0.41464 -s 2 -d 1 -p ack -e 40 -c 1 -i 27 -a 1 -x {2.0 0.0 10 ------- null}
+ -t 0.41464 -s 1 -d 0 -p ack -e 40 -c 1 -i 27 -a 1 -x {2.0 0.0 10 ------- null}
- -t 0.41464 -s 1 -d 0 -p ack -e 40 -c 1 -i 27 -a 1 -x {2.0 0.0 10 ------- null}
h -t 0.41464 -s 1 -d 0 -p ack -e 40 -c 1 -i 27 -a 1 -x {2.0 0.0 -1 ------- null}
r -t 0.41648 -s 1 -d 0 -p ack -e 40 -c 1 -i 24 -a 1 -x {2.0 0.0 9 ------- null}
+ -t 0.41648 -s 0 -d 1 -p tcp -e 1040 -c 1 -i 31 -a 1 -x {0.0 2.0 19 ------- null}
+ -t 0.41648 -s 0 -d 1 -p tcp -e 1040 -c 1 -i 32 -a 1 -x {0.0 2.0 20 ------- null}
- -t 0.41648 -s 0 -d 1 -p tcp -e 1040 -c 1 -i 31 -a 1 -x {0.0 2.0 19 ------- null}
h -t 0.41648 -s 0 -d 1 -p tcp -e 1040 -c 1 -i 31 -a 1 -x {0.0 2.0 -1 ------- null}
r -t 0.41816 -s 0 -d 1 -p tcp -e 1040 -c 1 -i 26 -a 1 -x {0.0 2.0 16 ------- null}
+ -t 0.41816 -s 1 -d 2 -p tcp -e 1040 -c 1 -i 26 -a 1 -x {0.0 2.0 16 ------- null}
- -t 0.41928 -s 1 -d 2 -p tcp -e 1040 -c 1 -i 21 -a 1 -x {0.0 2.0 14 ------- null}
h -t 0.41928 -s 1 -d 2 -p tcp -e 1040 -c 1 -i 21 -a 1 -x {0.0 2.0 -1 ------- null}
- -t 0.42064 -s 0 -d 1 -p tcp -e 1040 -c 1 -i 32 -a 1 -x {0.0 2.0 20 ------- null}
h -t 0.42064 -s 0 -d 1 -p tcp -e 1040 -c 1 -i 32 -a 1 -x {0.0 2.0 -1 ------- null}
r -t 0.42096 -s 1 -d 2 -p tcp -e 1040 -c 1 -i 19 -a 1 -x {0.0 2.0 12 ------- null}
+ -t 0.42096 -s 2 -d 1 -p ack -e 40 -c 1 -i 33 -a 1 -x {2.0 0.0 12 ------- null}
- -t 0.42096 -s 2 -d 1 -p ack -e 40 -c 1 -i 33 -a 1 -x {2.0 0.0 12 ------- null}
h -t 0.42096 -s 2 -d 1 -p ack -e 40 -c 1 -i 33 -a 1 -x {2.0 0.0 -1 ------- null}
r -t 0.42232 -s 0 -d 1 -p tcp -e 1040 -c 1 -i 28 -a 1 -x {0.0 2.0 17 ------- null}
+ -t 0.42232 -s 1 -d 2 -p tcp -e 1040 -c 1 -i 28 -a 1 -x {0.0 2.0 17 ------- null}
r -t 0.42296 -s 2 -d 1 -p ack -e 40 -c 1 -i 30 -a 1 -x {2.0 0.0 11 ------- null}
+ -t 0.42296 -s 1 -d 0 -p ack -e 40 -c 1 -i 30 -a 1 -x {2.0 0.0 11 ------- null}
- -t 0.42296 -s 1 -d 0 -p ack -e 40 -c 1 -i 30 -a 1 -x {2.0 0.0 11 ------- null}
h -t 0.42296 -s 1 -d 0 -p ack -e 40 -c 1 -i 30 -a 1 -x {2.0 0.0 -1 ------- null}
r -t 0.4248 -s 1 -d 0 -p ack -e 40 -c 1 -i 27 -a 1 -x {2.0 0.0 10 ------- null}
+ -t 0.4248 -s 0 -d 1 -p tcp -e 1040 -c 1 -i 34 -a 1 -x {0.0 2.0 21 ------- null}
+ -t 0.4248 -s 0 -d 1 -p tcp -e 1040 -c 1 -i 35 -a 1 -x {0.0 2.0 22 ------- null}
- -t 0.4248 -s 0 -d 1 -p tcp -e 1040 -c 1 -i 34 -a 1 -x {0.0 2.0 21 ------- null}
h -t 0.4248 -s 0 -d 1 -p tcp -e 1040 -c 1 -i 34 -a 1 -x {0.0 2.0 -1 ------- null}
r -t 0.42648 -s 0 -d 1 -p tcp -e 1040 -c 1 -i 29 -a 1 -x {0.0 2.0 18 ------- null}
+ -t 0.42648 -s 1 -d 2 -p tcp -e 1040 -c 1 -i 29 -a 1 -x {0.0 2.0 18 ------- null}
- -t 0.4276 -s 1 -d 2 -p tcp -e 1040 -c 1 -i 25 -a 1 -x {0.0 2.0 15 ------- null}
h -t 0.4276 -s 1 -d 2 -p tcp -e 1040 -c 1 -i 25 -a 1 -x {0.0 2.0 -1 ------- null}
- -t 0.42896 -s 0 -d 1 -p tcp -e 1040 -c 1 -i 35 -a 1 -x {0.0 2.0 22 ------- null}
h -t 0.42896 -s 0 -d 1 -p tcp -e 1040 -c 1 -i 35 -a 1 -x {0.0 2.0 -1 ------- null}
r -t 0.42928 -s 1 -d 2 -p tcp -e 1040 -c 1 -i 20 -a 1 -x {0.0 2.0 13 ------- null}
+ -t 0.42928 -s 2 -d 1 -p ack -e 40 -c 1 -i 36 -a 1 -x {2.0 0.0 13 ------- null}
- -t 0.42928 -s 2 -d 1 -p ack -e 40 -c 1 -i 36 -a 1 -x {2.0 0.0 13 ------- null}
h -t 0.42928 -s 2 -d 1 -p ack -e 40 -c 1 -i 36 -a 1 -x {2.0 0.0 -1 ------- null}
r -t 0.43064 -s 0 -d 1 -p tcp -e 1040 -c 1 -i 31 -a 1 -x {0.0 2.0 19 ------- null}
+ -t 0.43064 -s 1 -d 2 -p tcp -e 1040 -c 1 -i 31 -a 1 -x {0.0 2.0 19 ------- null}
r -t 0.43128 -s 2 -d 1 -p ack -e 40 -c 1 -i 33 -a 1 -x {2.0 0.0 12 ------- null}
+ -t 0.43128 -s 1 -d 0 -p ack -e 40 -c 1 -i 33 -a 1 -x {2.0 0.0 12 ------- null}
- -t 0.43128 -s 1 -d 0 -p ack -e 40 -c 1 -i 33 -a 1 -x {2.0 0.0 12 ------- null}
h -t 0.43128 -s 1 -d 0 -p ack -e 40 -c 1 -i 33 -a 1 -x {2.0 0.0 -1 ------- null}
r -t 0.43312 -s 1 -d 0 -p ack -e 40 -c 1 -i 30 -a 1 -x {2.0 0.0 11 ------- null}
+ -t 0.43312 -s 0 -d 1 -p tcp -e 1040 -c 1 -i 37 -a 1 -x {0.0 2.0 23 ------- null}
+ -t 0.43312 -s 0 -d 1 -p tcp -e 1040 -c 1 -i 38 -a 1 -x {0.0 2.0 24 ------- null}
- -t 0.43312 -s 0 -d 1 -p tcp -e 1040 -c 1 -i 37 -a 1 -x {0.0 2.0 23 ------- null}
h -t 0.43312 -s 0 -d 1 -p tcp -e 1040 -c 1 -i 37 -a 1 -x {0.0 2.0 -1 ------- null}
r -t 0.4348 -s 0 -d 1 -p tcp -e 1040 -c 1 -i 32 -a 1 -x {0.0 2.0 20 ------- null}
+ -t 0.4348 -s 1 -d 2 -p tcp -e 1040 -c 1 -i 32 -a 1 -x {0.0 2.0 20 ------- null}
d -t 0.4348 -s 1 -d 2 -p tcp -e 1040 -c 1 -i 32 -a 1 -x {0.0 2.0 20 ------- null}
- -t 0.43592 -s 1 -d 2 -p tcp -e 1040 -c 1 -i 26 -a 1 -x {0.0 2.0 16 ------- null}
h -t 0.43592 -s 1 -d 2 -p tcp -e 1040 -c 1 -i 26 -a 1 -x {0.0 2.0 -1 ------- null}
- -t 0.43728 -s 0 -d 1 -p tcp -e 1040 -c 1 -i 38 -a 1 -x {0.0 2.0 24 ------- null}
h -t 0.43728 -s 0 -d 1 -p tcp -e 1040 -c 1 -i 38 -a 1 -x {0.0 2.0 -1 ------- null}
r -t 0.4376 -s 1 -d 2 -p tcp -e 1040 -c 1 -i 21 -a 1 -x {0.0 2.0 14 ------- null}
+ -t 0.4376 -s 2 -d 1 -p ack -e 40 -c 1 -i 39 -a 1 -x {2.0 0.0 14 ------- null}
- -t 0.4376 -s 2 -d 1 -p ack -e 40 -c 1 -i 39 -a 1 -x {2.0 0.0 14 ------- null}
h -t 0.4376 -s 2 -d 1 -p ack -e 40 -c 1 -i 39 -a 1 -x {2.0 0.0 -1 ------- null}
r -t 0.43896 -s 0 -d 1 -p tcp -e 1040 -c 1 -i 34 -a 1 -x {0.0 2.0 21 ------- null}
+ -t 0.43896 -s 1 -d 2 -p tcp -e 1040 -c 1 -i 34 -a 1 -x {0.0 2.0 21 ------- null}
r -t 0.4396 -s 2 -d 1 -p ack -e 40 -c 1 -i 36 -a 1 -x {2.0 0.0 13 ------- null}
+ -t 0.4396 -s 1 -d 0 -p ack -e 40 -c 1 -i 36 -a 1 -x {2.0 0.0 13 ------- null}
- -t 0.4396 -s 1 -d 0 -p ack -e 40 -c 1 -i 36 -a 1 -x {2.0 0.0 13 ------- null}
h -t 0.4396 -s 1 -d 0 -p ack -e 40 -c 1 -i 36 -a 1 -x {2.0 0.0 -1 ------- null}
r -t 0.44144 -s 1 -d 0 -p ack -e 40 -c 1 -i 33 -a 1 -x {2.0 0.0 12 ------- null}
+ -t 0.44144 -s 0 -d 1 -p tcp -e 1040 -c 1 -i 40 -a 1 -x {0.0 2.0 25 ------- null}
+ -t 0.44144 -s 0 -d 1 -p tcp -e 1040 -c 1 -i 41 -a 1 -x {0.0 2.0 26 ------- null}
- -t 0.44144 -s 0 -d 1 -p tcp -e 1040 -c 1 -i 40 -a 1 -x {0.0 2.0 25 ------- null}
h -t 0.44144 -s 0 -d 1 -p tcp -e 1040 -c 1 -i 40 -a 1 -x {0.0 2.0 -1 ------- null}
r -t 0.44312 -s 0 -d 1 -p tcp -e 1040 -c 1 -i 35 -a 1 -x {0.0 2.0 22 ------- null}
+ -t 0.44312 -s 1 -d 2 -p tcp -e 1040 -c 1 -i 35 -a 1 -x {0.0 2.0 22 ------- null}
d -t 0.44312 -s 1 -d 2 -p tcp -e 1040 -c 1 -i 35 -a 1 -x {0.0 2.0 22 ------- null}
- -t 0.44424 -s 1 -d 2 -p tcp -e 1040 -c 1 -i 28 -a 1 -x {0.0 2.0 17 ------- null}
h -t 0.44424 -s 1 -d 2 -p tcp -e 1040 -c 1 -i 28 -a 1 -x {0.0 2.0 -1 ------- null}
- -t 0.4456 -s 0 -d 1 -p tcp -e 1040 -c 1 -i 41 -a 1 -x {0.0 2.0 26 ------- null}
h -t 0.4456 -s 0 -d 1 -p tcp -e 1040 -c 1 -i 41 -a 1 -x {0.0 2.0 -1 ------- null}
r -t 0.44592 -s 1 -d 2 -p tcp -e 1040 -c 1 -i 25 -a 1 -x {0.0 2.0 15 ------- null}
+ -t 0.44592 -s 2 -d 1 -p ack -e 40 -c 1 -i 42 -a 1 -x {2.0 0.0 15 ------- null}
- -t 0.44592 -s 2 -d 1 -p ack -e 40 -c 1 -i 42 -a 1 -x {2.0 0.0 15 ------- null}
h -t 0.44592 -s 2 -d 1 -p ack -e 40 -c 1 -i 42 -a 1 -x {2.0 0.0 -1 ------- null}
r -t 0.44728 -s 0 -d 1 -p tcp -e 1040 -c 1 -i 37 -a 1 -x {0.0 2.0 23 ------- null}
+ -t 0.44728 -s 1 -d 2 -p tcp -e 1040 -c 1 -i 37 -a 1 -x {0.0 2.0 23 ------- null}
r -t 0.44792 -s 2 -d 1 -p ack -e 40 -c 1 -i 39 -a 1 -x {2.0 0.0 14 ------- null}
+ -t 0.44792 -s 1 -d 0 -p ack -e 40 -c 1 -i 39 -a 1 -x {2.0 0.0 14 ------- null}
- -t 0.44792 -s 1 -d 0 -p ack -e 40 -c 1 -i 39 -a 1 -x {2.0 0.0 14 ------- null}
h -t 0.44792 -s 1 -d 0 -p ack -e 40 -c 1 -i 39 -a 1 -x {2.0 0.0 -1 ------- null}
r -t 0.44976 -s 1 -d 0 -p ack -e 40 -c 1 -i 36 -a 1 -x {2.0 0.0 13 ------- null}
+ -t 0.44976 -s 0 -d 1 -p tcp -e 1040 -c 1 -i 43 -a 1 -x {0.0 2.0 27 ------- null}
+ -t 0.44976 -s 0 -d 1 -p tcp -e 1040 -c 1 -i 44 -a 1 -x {0.0 2.0 28 ------- null}
- -t 0.44976 -s 0 -d 1 -p tcp -e 1040 -c 1 -i 43 -a 1 -x {0.0 2.0 27 ------- null}
h -t 0.44976 -s 0 -d 1 -p tcp -e 1040 -c 1 -i 43 -a 1 -x {0.0 2.0 -1 ------- null}
r -t 0.45144 -s 0 -d 1 -p tcp -e 1040 -c 1 -i 38 -a 1 -x {0.0 2.0 24 ------- null}
+ -t 0.45144 -s 1 -d 2 -p tcp -e 1040 -c 1 -i 38 -a 1 -x {0.0 2.0 24 ------- null}
d -t 0.45144 -s 1 -d 2 -p tcp -e 1040 -c 1 -i 38 -a 1 -x {0.0 2.0 24 ------- null}
- -t 0.45256 -s 1 -d 2 -p tcp -e 1040 -c 1 -i 29 -a 1 -x {0.0 2.0 18 ------- null}
h -t 0.45256 -s 1 -d 2 -p tcp -e 1040 -c 1 -i 29 -a 1 -x {0.0 2.0 -1 ------- null}
- -t 0.45392 -s 0 -d 1 -p tcp -e 1040 -c 1 -i 44 -a 1 -x {0.0 2.0 28 ------- null}
h -t 0.45392 -s 0 -d 1 -p tcp -e 1040 -c 1 -i 44 -a 1 -x {0.0 2.0 -1 ------- null}
r -t 0.45424 -s 1 -d 2 -p tcp -e 1040 -c 1 -i 26 -a 1 -x {0.0 2.0 16 ------- null}
+ -t 0.45424 -s 2 -d 1 -p ack -e 40 -c 1 -i 45 -a 1 -x {2.0 0.0 16 ------- null}
- -t 0.45424 -s 2 -d 1 -p ack -e 40 -c 1 -i 45 -a 1 -x {2.0 0.0 16 ------- null}
h -t 0.45424 -s 2 -d 1 -p ack -e 40 -c 1 -i 45 -a 1 -x {2.0 0.0 -1 ------- null}
r -t 0.4556 -s 0 -d 1 -p tcp -e 1040 -c 1 -i 40 -a 1 -x {0.0 2.0 25 ------- null}
+ -t 0.4556 -s 1 -d 2 -p tcp -e 1040 -c 1 -i 40 -a 1 -x {0.0 2.0 25 ------- null}
r -t 0.45624 -s 2 -d 1 -p ack -e 40 -c 1 -i 42 -a 1 -x {2.0 0.0 15 ------- null}
+ -t 0.45624 -s 1 -d 0 -p ack -e 40 -c 1 -i 42 -a 1 -x {2.0 0.0 15 ------- null}
- -t 0.45624 -s 1 -d 0 -p ack -e 40 -c 1 -i 42 -a 1 -x {2.0 0.0 15 ------- null}
h -t 0.45624 -s 1 -d 0 -p ack -e 40 -c 1 -i 42 -a 1 -x {2.0 0.0 -1 ------- null}
r -t 0.45808 -s 1 -d 0 -p ack -e 40 -c 1 -i 39 -a 1 -x {2.0 0.0 14 ------- null}
+ -t 0.45808 -s 0 -d 1 -p tcp -e 1040 -c 1 -i 46 -a 1 -x {0.0 2.0 29 ------- null}
+ -t 0.45808 -s 0 -d 1 -p tcp -e 1040 -c 1 -i 47 -a 1 -x {0.0 2.0 30 ------- null}
- -t 0.45808 -s 0 -d 1 -p tcp -e 1040 -c 1 -i 46 -a 1 -x {0.0 2.0 29 ------- null}
h -t 0.45808 -s 0 -d 1 -p tcp -e 1040 -c 1 -i 46 -a 1 -x {0.0 2.0 -1 ------- null}
r -t 0.45976 -s 0 -d 1 -p tcp -e 1040 -c 1 -i 41 -a 1 -x {0.0 2.0 26 ------- null}
+ -t 0.45976 -s 1 -d 2 -p tcp -e 1040 -c 1 -i 41 -a 1 -x {0.0 2.0 26 ------- null}
d -t 0.45976 -s 1 -d 2 -p tcp -e 1040 -c 1 -i 41 -a 1 -x {0.0 2.0 26 ------- null}
- -t 0.46088 -s 1 -d 2 -p tcp -e 1040 -c 1 -i 31 -a 1 -x {0.0 2.0 19 ------- null}
h -t 0.46088 -s 1 -d 2 -p tcp -e 1040 -c 1 -i 31 -a 1 -x {0.0 2.0 -1 ------- null}
- -t 0.46224 -s 0 -d 1 -p tcp -e 1040 -c 1 -i 47 -a 1 -x {0.0 2.0 30 ------- null}
h -t 0.46224 -s 0 -d 1 -p tcp -e 1040 -c 1 -i 47 -a 1 -x {0.0 2.0 -1 ------- null}
r -t 0.46256 -s 1 -d 2 -p tcp -e 1040 -c 1 -i 28 -a 1 -x {0.0 2.0 17 ------- null}
+ -t 0.46256 -s 2 -d 1 -p ack -e 40 -c 1 -i 48 -a 1 -x {2.0 0.0 17 ------- null}
- -t 0.46256 -s 2 -d 1 -p ack -e 40 -c 1 -i 48 -a 1 -x {2.0 0.0 17 ------- null}
h -t 0.46256 -s 2 -d 1 -p ack -e 40 -c 1 -i 48 -a 1 -x {2.0 0.0 -1 ------- null}
r -t 0.46392 -s 0 -d 1 -p tcp -e 1040 -c 1 -i 43 -a 1 -x {0.0 2.0 27 ------- null}
+ -t 0.46392 -s 1 -d 2 -p tcp -e 1040 -c 1 -i 43 -a 1 -x {0.0 2.0 27 ------- null}
r -t 0.46456 -s 2 -d 1 -p ack -e 40 -c 1 -i 45 -a 1 -x {2.0 0.0 16 ------- null}
+ -t 0.46456 -s 1 -d 0 -p ack -e 40 -c 1 -i 45 -a 1 -x {2.0 0.0 16 ------- null}
- -t 0.46456 -s 1 -d 0 -p ack -e 40 -c 1 -i 45 -a 1 -x {2.0 0.0 16 ------- null}
h -t 0.46456 -s 1 -d 0 -p ack -e 40 -c 1 -i 45 -a 1 -x {2.0 0.0 -1 ------- null}
r -t 0.4664 -s 1 -d 0 -p ack -e 40 -c 1 -i 42 -a 1 -x {2.0 0.0 15 ------- null}
+ -t 0.4664 -s 0 -d 1 -p tcp -e 1040 -c 1 -i 49 -a 1 -x {0.0 2.0 31 ------- null}
+ -t 0.4664 -s 0 -d 1 -p tcp -e 1040 -c 1 -i 50 -a 1 -x {0.0 2.0 32 ------- null}
- -t 0.4664 -s 0 -d 1 -p tcp -e 1040 -c 1 -i 49 -a 1 -x {0.0 2.0 31 ------- null}
h -t 0.4664 -s 0 -d 1 -p tcp -e 1040 -c 1 -i 49 -a 1 -x {0.0 2.0 -1 ------- null}
r -t 0.46808 -s 0 -d 1 -p tcp -e 1040 -c 1 -i 44 -a 1 -x {0.0 2.0 28 ------- null}
+ -t 0.46808 -s 1 -d 2 -p tcp -e 1040 -c 1 -i 44 -a 1 -x {0.0 2.0 28 ------- null}
d -t 0.46808 -s 1 -d 2 -p tcp -e 1040 -c 1 -i 44 -a 1 -x {0.0 2.0 28 ------- null}
- -t 0.4692 -s 1 -d 2 -p tcp -e 1040 -c 1 -i 34 -a 1 -x {0.0 2.0 21 ------- null}
h -t 0.4692 -s 1 -d 2 -p tcp -e 1040 -c 1 -i 34 -a 1 -x {0.0 2.0 -1 ------- null}
- -t 0.47056 -s 0 -d 1 -p tcp -e 1040 -c 1 -i 50 -a 1 -x {0.0 2.0 32 ------- null}
h -t 0.47056 -s 0 -d 1 -p tcp -e 1040 -c 1 -i 50 -a 1 -x {0.0 2.0 -1 ------- null}
r -t 0.47088 -s 1 -d 2 -p tcp -e 1040 -c 1 -i 29 -a 1 -x {0.0 2.0 18 ------- null}
+ -t 0.47088 -s 2 -d 1 -p ack -e 40 -c 1 -i 51 -a 1 -x {2.0 0.0 18 ------- null}
- -t 0.47088 -s 2 -d 1 -p ack -e 40 -c 1 -i 51 -a 1 -x {2.0 0.0 18 ------- null}